<?xml version="1.0" encoding="UTF-8"?>

<!-- generated on Mon Mar  5 01:13:02 2018 by SUMO Version 0.32.0
<?xml version="1.0" encoding="UTF-8"?>

<configuration xmlns:xsi="http://www.w3.org/2001/XMLSchema-instance" xsi:noNamespaceSchemaLocation="http://sumo.dlr.de/xsd/sumoConfiguration.xsd">

    <input>
        <net-file value="data/cross.net.xml"/>
        <route-files value="data/cross.rou.xml"/>
        <additional-files value="data/extraInfo.xml"/>
    </input>

    <output>
        <tripinfo-output value="tripinfo.xml"/>
    </output>

    <time>
        <begin value="0"/>
        <end value="3600"/>
    </time>

    <processing>
        <max-num-vehicles value="900"/>
    </processing>

    <report>
        <verbose value="true"/>
        <no-step-log value="true"/>
    </report>

    <traci_server>
        <remote-port value="36176"/>
    </traci_server>

</configuration>
-->

<tripinfos xmlns:xsi="http://www.w3.org/2001/XMLSchema-instance" xsi:noNamespaceSchemaLocation="http://sumo.dlr.de/xsd/tripinfo_file.xsd">
    <tripinfo id="154" depart="0.00" departLane="16to10_0" departPos="3.10" departSpeed="0.00" departDelay="0.00" arrival="32.00" arrivalLane="16to10_0" arrivalPos="290.50" arrivalSpeed="13.62" duration="32.00" routeLength="287.40" waitSteps="0" timeLoss="10.35" rerouteNo="0" devices="tripinfo_154" vType="generic" speedFactor="1.00" vaporized=""/>
    <tripinfo id="30" depart="0.00" departLane="22to21_0" departPos="3.10" departSpeed="0.00" departDelay="0.00" arrival="32.00" arrivalLane="22to21_0" arrivalPos="283.90" arrivalSpeed="13.50" duration="32.00" routeLength="280.80" waitSteps="0" timeLoss="11.29" rerouteNo="0" devices="tripinfo_30" vType="generic" speedFactor="1.00" vaporized=""/>
    <tripinfo id="165" depart="0.00" departLane="3to4_0" departPos="3.10" departSpeed="0.00" departDelay="0.00" arrival="32.00" arrivalLane="3to4_0" arrivalPos="290.50" arrivalSpeed="13.64" duration="32.00" routeLength="287.40" waitSteps="0" timeLoss="10.78" rerouteNo="0" devices="tripinfo_165" vType="generic" speedFactor="1.00" vaporized=""/>
    <tripinfo id="87" depart="0.00" departLane="11to10_0" departPos="3.10" departSpeed="0.00" departDelay="0.00" arrival="33.00" arrivalLane="11to10_0" arrivalPos="297.10" arrivalSpeed="13.80" duration="33.00" routeLength="294.00" waitSteps="0" timeLoss="10.91" rerouteNo="0" devices="tripinfo_87" vType="generic" speedFactor="1.00" vaporized=""/>
    <tripinfo id="211" depart="0.00" departLane="14to8_0" departPos="3.10" departSpeed="0.00" departDelay="0.00" arrival="33.00" arrivalLane="14to8_0" arrivalPos="290.50" arrivalSpeed="13.85" duration="33.00" routeLength="287.40" waitSteps="0" timeLoss="11.42" rerouteNo="0" devices="tripinfo_211" vType="generic" speedFactor="1.00" vaporized=""/>
    <tripinfo id="1959" depart="0.00" departLane="17to18_0" departPos="3.10" departSpeed="0.00" departDelay="0.00" arrival="33.00" arrivalLane="17to18_0" arrivalPos="293.80" arrivalSpeed="13.56" duration="33.00" routeLength="290.70" waitSteps="0" timeLoss="11.49" rerouteNo="0" devices="tripinfo_1959" vType="generic" speedFactor="1.00" vaporized=""/>
    <tripinfo id="99" depart="0.00" departLane="22to16_0" departPos="3.10" departSpeed="0.00" departDelay="0.00" arrival="33.00" arrivalLane="22to16_0" arrivalPos="297.10" arrivalSpeed="13.77" duration="33.00" routeLength="294.00" waitSteps="0" timeLoss="11.83" rerouteNo="0" devices="tripinfo_99" vType="generic" speedFactor="1.00" vaporized=""/>
    <tripinfo id="1801" depart="0.00" departLane="29to30_0" departPos="3.10" departSpeed="0.00" departDelay="0.00" arrival="33.00" arrivalLane="29to30_0" arrivalPos="293.80" arrivalSpeed="13.75" duration="33.00" routeLength="290.70" waitSteps="0" timeLoss="11.22" rerouteNo="0" devices="tripinfo_1801" vType="generic" speedFactor="1.00" vaporized=""/>
    <tripinfo id="429" depart="0.00" departLane="5to6_0" departPos="3.10" departSpeed="0.00" departDelay="0.00" arrival="33.00" arrivalLane="5to6_0" arrivalPos="295.30" arrivalSpeed="13.50" duration="33.00" routeLength="292.20" waitSteps="0" timeLoss="11.74" rerouteNo="0" devices="tripinfo_429" vType="generic" speedFactor="1.00" vaporized=""/>
    <tripinfo id="66" depart="0.00" departLane="8to7_0" departPos="3.10" departSpeed="0.00" departDelay="0.00" arrival="34.00" arrivalLane="8to7_0" arrivalPos="293.80" arrivalSpeed="13.56" duration="34.00" routeLength="290.70" waitSteps="0" timeLoss="12.44" rerouteNo="0" devices="tripinfo_66" vType="generic" speedFactor="1.00" vaporized=""/>
    <tripinfo id="10" depart="4.00" departLane="9to15_0" departPos="3.10" departSpeed="0.00" departDelay="4.00" arrival="36.00" arrivalLane="9to15_1" arrivalPos="290.50" arrivalSpeed="13.74" duration="32.00" routeLength="287.40" waitSteps="0" timeLoss="10.78" rerouteNo="0" devices="tripinfo_10" vType="generic" speedFactor="1.00" vaporized=""/>
    <tripinfo id="3299" depart="4.00" departLane="29to30_0" departPos="3.10" departSpeed="0.00" departDelay="4.00" arrival="36.00" arrivalLane="29to30_0" arrivalPos="293.80" arrivalSpeed="13.57" duration="32.00" routeLength="290.70" waitSteps="0" timeLoss="11.09" rerouteNo="0" devices="tripinfo_3299" vType="generic" speedFactor="1.00" vaporized=""/>
    <tripinfo id="20" depart="4.00" departLane="16to17_0" departPos="3.10" departSpeed="0.00" departDelay="4.00" arrival="37.00" arrivalLane="16to17_0" arrivalPos="297.10" arrivalSpeed="13.87" duration="33.00" routeLength="294.00" waitSteps="0" timeLoss="11.33" rerouteNo="0" devices="tripinfo_20" vType="generic" speedFactor="1.00" vaporized=""/>
    <tripinfo id="402" depart="4.00" departLane="32to31_0" departPos="3.10" departSpeed="0.00" departDelay="4.00" arrival="38.00" arrivalLane="32to31_0" arrivalPos="295.30" arrivalSpeed="13.78" duration="34.00" routeLength="292.20" waitSteps="0" timeLoss="12.29" rerouteNo="0" devices="tripinfo_402" vType="generic" speedFactor="1.00" vaporized=""/>
    <tripinfo id="328" depart="4.00" departLane="8to7_0" departPos="3.10" departSpeed="0.00" departDelay="4.00" arrival="38.00" arrivalLane="8to7_0" arrivalPos="293.80" arrivalSpeed="13.66" duration="34.00" routeLength="290.70" waitSteps="0" timeLoss="12.19" rerouteNo="0" devices="tripinfo_328" vType="generic" speedFactor="1.00" vaporized=""/>
    <tripinfo id="159" depart="8.00" departLane="26to27_0" departPos="3.10" departSpeed="0.00" departDelay="8.00" arrival="40.00" arrivalLane="26to27_0" arrivalPos="297.10" arrivalSpeed="13.77" duration="32.00" routeLength="294.00" waitSteps="0" timeLoss="10.74" rerouteNo="0" devices="tripinfo_159" vType="generic" speedFactor="1.00" vaporized=""/>
    <tripinfo id="419" depart="8.00" departLane="28to29_0" departPos="3.10" departSpeed="0.00" departDelay="8.00" arrival="41.00" arrivalLane="28to29_0" arrivalPos="297.10" arrivalSpeed="13.89" duration="33.00" routeLength="294.00" waitSteps="0" timeLoss="11.36" rerouteNo="0" devices="tripinfo_419" vType="generic" speedFactor="1.00" vaporized=""/>
    <tripinfo id="4622" depart="8.00" departLane="29to30_0" departPos="3.10" departSpeed="0.00" departDelay="8.00" arrival="41.00" arrivalLane="29to30_0" arrivalPos="293.80" arrivalSpeed="13.83" duration="33.00" routeLength="290.70" waitSteps="0" timeLoss="12.06" rerouteNo="0" devices="tripinfo_4622" vType="generic" speedFactor="1.00" vaporized=""/>
    <tripinfo id="561" depart="9.00" departLane="32to31_0" departPos="3.10" departSpeed="0.00" departDelay="9.00" arrival="41.00" arrivalLane="32to31_0" arrivalPos="295.30" arrivalSpeed="13.80" duration="32.00" routeLength="292.20" waitSteps="0" timeLoss="10.90" rerouteNo="0" devices="tripinfo_561" vType="generic" speedFactor="1.00" vaporized=""/>
    <tripinfo id="68" depart="8.00" departLane="33to32_0" departPos="3.10" departSpeed="0.00" departDelay="8.00" arrival="41.00" arrivalLane="33to32_0" arrivalPos="297.10" arrivalSpeed="13.55" duration="33.00" routeLength="294.00" waitSteps="0" timeLoss="11.76" rerouteNo="0" devices="tripinfo_68" vType="generic" speedFactor="1.00" vaporized=""/>
    <tripinfo id="657" depart="9.00" departLane="8to7_0" departPos="3.10" departSpeed="0.00" departDelay="9.00" arrival="42.00" arrivalLane="8to7_0" arrivalPos="293.80" arrivalSpeed="13.73" duration="33.00" routeLength="290.70" waitSteps="0" timeLoss="11.35" rerouteNo="0" devices="tripinfo_657" vType="generic" speedFactor="1.00" vaporized=""/>
    <tripinfo id="311" depart="12.00" departLane="25to19_0" departPos="3.10" departSpeed="0.00" departDelay="12.00" arrival="44.00" arrivalLane="25to19_0" arrivalPos="290.50" arrivalSpeed="13.68" duration="32.00" routeLength="287.40" waitSteps="0" timeLoss="10.72" rerouteNo="0" devices="tripinfo_311" vType="generic" speedFactor="1.00" vaporized=""/>
    <tripinfo id="5187" depart="12.00" departLane="29to30_0" departPos="3.10" departSpeed="0.00" departDelay="12.00" arrival="45.00" arrivalLane="29to30_0" arrivalPos="293.80" arrivalSpeed="13.85" duration="33.00" routeLength="290.70" waitSteps="0" timeLoss="11.83" rerouteNo="0" devices="tripinfo_5187" vType="generic" speedFactor="1.00" vaporized=""/>
    <tripinfo id="94" depart="13.00" departLane="31to25_0" departPos="3.10" departSpeed="0.00" departDelay="13.00" arrival="46.00" arrivalLane="31to25_0" arrivalPos="298.60" arrivalSpeed="13.71" duration="33.00" routeLength="295.50" waitSteps="0" timeLoss="11.16" rerouteNo="0" devices="tripinfo_94" vType="generic" speedFactor="1.00" vaporized=""/>
    <tripinfo id="466" depart="4.00" departLane="24to30_0" departPos="3.10" departSpeed="0.00" departDelay="4.00" arrival="49.00" arrivalLane="24to30_0" arrivalPos="290.50" arrivalSpeed="2.50" duration="45.00" routeLength="287.40" waitSteps="8" timeLoss="24.33" rerouteNo="0" devices="tripinfo_466" vType="generic" speedFactor="1.00" vaporized=""/>
    <tripinfo id="2760" depart="17.00" departLane="8to7_0" departPos="3.10" departSpeed="0.00" departDelay="17.00" arrival="49.00" arrivalLane="8to7_0" arrivalPos="293.80" arrivalSpeed="13.84" duration="32.00" routeLength="290.70" waitSteps="0" timeLoss="10.71" rerouteNo="0" devices="tripinfo_2760" vType="generic" speedFactor="1.00" vaporized=""/>
    <tripinfo id="674" depart="4.00" departLane="12to18_0" departPos="3.10" departSpeed="0.00" departDelay="4.00" arrival="50.00" arrivalLane="12to18_0" arrivalPos="290.50" arrivalSpeed="2.59" duration="46.00" routeLength="287.40" waitSteps="8" timeLoss="25.20" rerouteNo="0" devices="tripinfo_674" vType="generic" speedFactor="1.00" vaporized=""/>
    <tripinfo id="5327" depart="17.00" departLane="29to30_0" departPos="3.10" departSpeed="0.00" departDelay="17.00" arrival="50.00" arrivalLane="29to30_0" arrivalPos="293.80" arrivalSpeed="13.87" duration="33.00" routeLength="290.70" waitSteps="0" timeLoss="11.99" rerouteNo="0" devices="tripinfo_5327" vType="generic" speedFactor="1.00" vaporized=""/>
    <tripinfo id="144" depart="4.00" departLane="8to2_0" departPos="3.10" departSpeed="0.00" departDelay="4.00" arrival="51.00" arrivalLane="8to2_0" arrivalPos="297.10" arrivalSpeed="2.55" duration="47.00" routeLength="294.00" waitSteps="8" timeLoss="25.77" rerouteNo="0" devices="tripinfo_144" vType="generic" speedFactor="1.00" vaporized=""/>
    <tripinfo id="807" depart="20.00" departLane="21to27_0" departPos="3.10" departSpeed="0.00" departDelay="20.00" arrival="52.00" arrivalLane="21to27_0" arrivalPos="283.90" arrivalSpeed="13.58" duration="32.00" routeLength="280.80" waitSteps="0" timeLoss="11.04" rerouteNo="0" devices="tripinfo_807" vType="generic" speedFactor="1.00" vaporized=""/>
    <tripinfo id="547" depart="8.00" departLane="23to29_0" departPos="3.10" departSpeed="0.00" departDelay="8.00" arrival="53.00" arrivalLane="23to29_0" arrivalPos="283.90" arrivalSpeed="3.46" duration="45.00" routeLength="280.80" waitSteps="5" timeLoss="24.69" rerouteNo="0" devices="tripinfo_547" vType="generic" speedFactor="1.00" vaporized=""/>
    <tripinfo id="526" depart="21.00" departLane="28to29_0" departPos="3.10" departSpeed="0.00" departDelay="21.00" arrival="54.00" arrivalLane="28to29_1" arrivalPos="297.10" arrivalSpeed="12.72" duration="33.00" routeLength="294.00" waitSteps="0" timeLoss="11.18" rerouteNo="0" devices="tripinfo_526" vType="generic" speedFactor="1.00" vaporized=""/>
    <tripinfo id="128" depart="8.00" departLane="34to28_0" departPos="3.10" departSpeed="0.00" departDelay="8.00" arrival="54.00" arrivalLane="34to28_0" arrivalPos="297.10" arrivalSpeed="3.08" duration="46.00" routeLength="294.00" waitSteps="4" timeLoss="24.85" rerouteNo="0" devices="tripinfo_128" vType="generic" speedFactor="1.00" vaporized=""/>
    <tripinfo id="3039" depart="21.00" departLane="8to7_0" departPos="3.10" departSpeed="0.00" departDelay="21.00" arrival="54.00" arrivalLane="8to7_0" arrivalPos="293.80" arrivalSpeed="13.53" duration="33.00" routeLength="290.70" waitSteps="0" timeLoss="11.88" rerouteNo="0" devices="tripinfo_3039" vType="generic" speedFactor="1.00" vaporized=""/>
    <tripinfo id="737" depart="13.00" departLane="23to29_0" departPos="3.10" departSpeed="0.00" departDelay="13.00" arrival="55.00" arrivalLane="23to29_0" arrivalPos="283.90" arrivalSpeed="4.40" duration="42.00" routeLength="280.80" waitSteps="1" timeLoss="21.75" rerouteNo="0" devices="tripinfo_737" vType="generic" speedFactor="1.00" vaporized=""/>
    <tripinfo id="833" depart="13.00" departLane="24to30_0" departPos="3.10" departSpeed="0.00" departDelay="13.00" arrival="56.00" arrivalLane="24to30_0" arrivalPos="290.50" arrivalSpeed="3.45" duration="43.00" routeLength="287.40" waitSteps="2" timeLoss="22.15" rerouteNo="0" devices="tripinfo_833" vType="generic" speedFactor="1.00" vaporized=""/>
    <tripinfo id="509" depart="16.00" departLane="11to10_0" departPos="3.10" departSpeed="0.00" departDelay="16.00" arrival="58.00" arrivalLane="11to10_0" arrivalPos="297.10" arrivalSpeed="2.60" duration="42.00" routeLength="294.00" waitSteps="0" timeLoss="20.82" rerouteNo="0" devices="tripinfo_509" vType="generic" speedFactor="1.00" vaporized=""/>
    <tripinfo id="1109" depart="17.00" departLane="24to30_0" departPos="3.10" departSpeed="0.00" departDelay="17.00" arrival="58.00" arrivalLane="24to30_0" arrivalPos="290.50" arrivalSpeed="4.42" duration="41.00" routeLength="287.40" waitSteps="0" timeLoss="20.20" rerouteNo="0" devices="tripinfo_1109" vType="generic" speedFactor="1.00" vaporized=""/>
    <tripinfo id="1368" depart="25.00" departLane="32to31_0" departPos="3.10" departSpeed="0.00" departDelay="25.00" arrival="58.00" arrivalLane="32to31_0" arrivalPos="295.30" arrivalSpeed="13.63" duration="33.00" routeLength="292.20" waitSteps="0" timeLoss="11.07" rerouteNo="0" devices="tripinfo_1368" vType="generic" speedFactor="1.00" vaporized=""/>
    <tripinfo id="2665" depart="25.00" departLane="5to6_0" departPos="3.10" departSpeed="0.00" departDelay="25.00" arrival="58.00" arrivalLane="5to6_0" arrivalPos="295.30" arrivalSpeed="13.60" duration="33.00" routeLength="292.20" waitSteps="0" timeLoss="11.32" rerouteNo="0" devices="tripinfo_2665" vType="generic" speedFactor="1.00" vaporized=""/>
    <tripinfo id="3118" depart="26.00" departLane="8to7_0" departPos="3.10" departSpeed="0.00" departDelay="26.00" arrival="59.00" arrivalLane="8to7_0" arrivalPos="293.80" arrivalSpeed="13.72" duration="33.00" routeLength="290.70" waitSteps="0" timeLoss="11.42" rerouteNo="0" devices="tripinfo_3118" vType="generic" speedFactor="1.00" vaporized=""/>
    <tripinfo id="2195" depart="21.00" departLane="24to30_0" departPos="3.10" departSpeed="0.00" departDelay="21.00" arrival="60.00" arrivalLane="24to30_0" arrivalPos="290.50" arrivalSpeed="4.46" duration="39.00" routeLength="287.40" waitSteps="0" timeLoss="18.30" rerouteNo="0" devices="tripinfo_2195" vType="generic" speedFactor="1.00" vaporized=""/>
    <tripinfo id="376" depart="4.00" departLane="3to4_0" departPos="3.10" departSpeed="0.00" departDelay="4.00" arrival="61.00" arrivalLane="4to5_0" arrivalPos="297.10" arrivalSpeed="11.07" duration="57.00" routeLength="590.70" waitSteps="0" timeLoss="14.20" rerouteNo="0" devices="tripinfo_376" vType="generic" speedFactor="1.00" vaporized=""/>
    <tripinfo id="1434" depart="29.00" departLane="28to29_0" departPos="3.10" departSpeed="0.00" departDelay="29.00" arrival="62.00" arrivalLane="28to29_1" arrivalPos="297.10" arrivalSpeed="13.72" duration="33.00" routeLength="294.00" waitSteps="0" timeLoss="11.52" rerouteNo="0" devices="tripinfo_1434" vType="generic" speedFactor="1.00" vaporized=""/>
    <tripinfo id="3093" depart="25.00" departLane="24to30_0" departPos="3.10" departSpeed="0.00" departDelay="25.00" arrival="62.00" arrivalLane="24to30_0" arrivalPos="290.50" arrivalSpeed="5.28" duration="37.00" routeLength="287.40" waitSteps="0" timeLoss="16.29" rerouteNo="0" devices="tripinfo_3093" vType="generic" speedFactor="1.00" vaporized=""/>
    <tripinfo id="1899" depart="25.00" departLane="12to18_0" departPos="3.10" departSpeed="0.00" departDelay="25.00" arrival="64.00" arrivalLane="12to18_0" arrivalPos="290.50" arrivalSpeed="4.23" duration="39.00" routeLength="287.40" waitSteps="0" timeLoss="18.14" rerouteNo="0" devices="tripinfo_1899" vType="generic" speedFactor="1.00" vaporized=""/>
    <tripinfo id="133" depart="0.00" departLane="28to29_0" departPos="3.10" departSpeed="0.00" departDelay="0.00" arrival="66.00" arrivalLane="29to35_0" arrivalPos="297.10" arrivalSpeed="9.37" duration="66.00" routeLength="596.10" waitSteps="0" timeLoss="22.91" rerouteNo="0" devices="tripinfo_133" vType="generic" speedFactor="1.00" vaporized=""/>
    <tripinfo id="2196" depart="34.00" departLane="32to31_0" departPos="3.10" departSpeed="0.00" departDelay="34.00" arrival="66.00" arrivalLane="32to31_0" arrivalPos="295.30" arrivalSpeed="13.51" duration="32.00" routeLength="292.20" waitSteps="0" timeLoss="10.85" rerouteNo="0" devices="tripinfo_2196" vType="generic" speedFactor="1.00" vaporized=""/>
    <tripinfo id="4097" depart="34.00" departLane="8to7_0" departPos="3.10" departSpeed="0.00" departDelay="34.00" arrival="67.00" arrivalLane="8to7_0" arrivalPos="293.80" arrivalSpeed="13.73" duration="33.00" routeLength="290.70" waitSteps="0" timeLoss="11.55" rerouteNo="0" devices="tripinfo_4097" vType="generic" speedFactor="1.00" vaporized=""/>
    <tripinfo id="80" depart="4.00" departLane="4to5_0" departPos="3.10" departSpeed="0.00" departDelay="4.00" arrival="68.00" arrivalLane="5to11_0" arrivalPos="297.10" arrivalSpeed="6.91" duration="64.00" routeLength="596.10" waitSteps="0" timeLoss="20.77" rerouteNo="0" devices="tripinfo_80" vType="generic" speedFactor="1.00" vaporized=""/>
    <tripinfo id="3374" depart="4.00" departLane="17to18_0" departPos="3.10" departSpeed="0.00" departDelay="4.00" arrival="69.00" arrivalLane="18to24_0" arrivalPos="297.10" arrivalSpeed="9.26" duration="65.00" routeLength="592.80" waitSteps="0" timeLoss="22.07" rerouteNo="0" devices="tripinfo_3374" vType="generic" speedFactor="1.00" vaporized=""/>
    <tripinfo id="533" depart="29.00" departLane="11to17_0" departPos="3.10" departSpeed="0.00" departDelay="29.00" arrival="70.00" arrivalLane="11to17_0" arrivalPos="290.50" arrivalSpeed="6.10" duration="41.00" routeLength="287.40" waitSteps="0" timeLoss="20.06" rerouteNo="0" devices="tripinfo_533" vType="generic" speedFactor="1.00" vaporized=""/>
    <tripinfo id="2522" depart="34.00" departLane="12to18_0" departPos="3.10" departSpeed="0.00" departDelay="34.00" arrival="70.00" arrivalLane="12to18_0" arrivalPos="290.50" arrivalSpeed="4.92" duration="36.00" routeLength="287.40" waitSteps="0" timeLoss="15.00" rerouteNo="0" devices="tripinfo_2522" vType="generic" speedFactor="1.00" vaporized=""/>
    <tripinfo id="2906" depart="37.00" departLane="20to19_0" departPos="3.10" departSpeed="0.00" departDelay="37.00" arrival="70.00" arrivalLane="20to19_0" arrivalPos="293.80" arrivalSpeed="11.22" duration="33.00" routeLength="290.70" waitSteps="0" timeLoss="11.51" rerouteNo="0" devices="tripinfo_2906" vType="generic" speedFactor="1.00" vaporized=""/>
    <tripinfo id="4881" depart="8.00" departLane="17to18_0" departPos="3.10" departSpeed="0.00" departDelay="8.00" arrival="71.00" arrivalLane="18to24_0" arrivalPos="297.10" arrivalSpeed="10.33" duration="63.00" routeLength="592.80" waitSteps="0" timeLoss="19.75" rerouteNo="0" devices="tripinfo_4881" vType="generic" speedFactor="1.00" vaporized=""/>
    <tripinfo id="1923" depart="13.00" departLane="8to7_0" departPos="3.10" departSpeed="0.00" departDelay="13.00" arrival="71.00" arrivalLane="7to1_0" arrivalPos="298.60" arrivalSpeed="6.08" duration="58.00" routeLength="594.30" waitSteps="0" timeLoss="14.97" rerouteNo="0" devices="tripinfo_1923" vType="generic" speedFactor="1.00" vaporized=""/>
    <tripinfo id="730" depart="38.00" departLane="11to10_0" departPos="3.10" departSpeed="0.00" departDelay="38.00" arrival="73.00" arrivalLane="11to10_0" arrivalPos="297.10" arrivalSpeed="5.27" duration="35.00" routeLength="294.00" waitSteps="0" timeLoss="13.85" rerouteNo="0" devices="tripinfo_730" vType="generic" speedFactor="1.00" vaporized=""/>
    <tripinfo id="3566" depart="41.00" departLane="24to30_0" departPos="3.10" departSpeed="0.00" departDelay="41.00" arrival="73.00" arrivalLane="24to30_0" arrivalPos="290.50" arrivalSpeed="13.79" duration="32.00" routeLength="287.40" waitSteps="0" timeLoss="10.38" rerouteNo="0" devices="tripinfo_3566" vType="generic" speedFactor="1.00" vaporized=""/>
    <tripinfo id="383" depart="41.00" departLane="2to3_0" departPos="3.10" departSpeed="0.00" departDelay="41.00" arrival="73.00" arrivalLane="2to3_0" arrivalPos="297.10" arrivalSpeed="13.56" duration="32.00" routeLength="294.00" waitSteps="0" timeLoss="10.36" rerouteNo="0" devices="tripinfo_383" vType="generic" speedFactor="1.00" vaporized=""/>
    <tripinfo id="4114" depart="42.00" departLane="12to18_0" departPos="3.10" departSpeed="0.00" departDelay="42.00" arrival="74.00" arrivalLane="12to18_0" arrivalPos="290.50" arrivalSpeed="13.69" duration="32.00" routeLength="287.40" waitSteps="0" timeLoss="10.97" rerouteNo="0" devices="tripinfo_4114" vType="generic" speedFactor="1.00" vaporized=""/>
    <tripinfo id="4133" depart="41.00" departLane="8to7_0" departPos="3.10" departSpeed="0.00" departDelay="41.00" arrival="74.00" arrivalLane="8to7_0" arrivalPos="293.80" arrivalSpeed="13.57" duration="33.00" routeLength="290.70" waitSteps="0" timeLoss="11.33" rerouteNo="0" devices="tripinfo_4133" vType="generic" speedFactor="1.00" vaporized=""/>
    <tripinfo id="51" depart="12.00" departLane="6to12_0" departPos="3.10" departSpeed="0.00" departDelay="12.00" arrival="76.00" arrivalLane="12to18_0" arrivalPos="290.50" arrivalSpeed="13.51" duration="64.00" routeLength="592.20" waitSteps="0" timeLoss="21.17" rerouteNo="0" devices="tripinfo_51" vType="generic" speedFactor="1.00" vaporized=""/>
    <tripinfo id="72" depart="0.00" departLane="5to11_0" departPos="3.10" departSpeed="0.00" departDelay="0.00" arrival="78.00" arrivalLane="11to17_0" arrivalPos="290.50" arrivalSpeed="7.98" duration="78.00" routeLength="590.70" waitSteps="9" timeLoss="35.29" rerouteNo="0" devices="tripinfo_72" vType="generic" speedFactor="1.00" vaporized=""/>
    <tripinfo id="580" depart="0.00" departLane="12to18_0" departPos="3.10" departSpeed="0.00" departDelay="0.00" arrival="78.00" arrivalLane="18to24_0" arrivalPos="297.10" arrivalSpeed="13.70" duration="78.00" routeLength="590.70" waitSteps="10" timeLoss="35.26" rerouteNo="0" devices="tripinfo_580" vType="generic" speedFactor="1.00" vaporized=""/>
    <tripinfo id="4700" depart="45.00" departLane="8to7_0" departPos="3.10" departSpeed="0.00" departDelay="45.00" arrival="78.00" arrivalLane="8to7_0" arrivalPos="293.80" arrivalSpeed="13.55" duration="33.00" routeLength="290.70" waitSteps="0" timeLoss="11.49" rerouteNo="0" devices="tripinfo_4700" vType="generic" speedFactor="1.00" vaporized=""/>
    <tripinfo id="974" depart="46.00" departLane="15to21_0" departPos="3.10" departSpeed="0.00" departDelay="46.00" arrival="79.00" arrivalLane="15to21_0" arrivalPos="297.10" arrivalSpeed="13.75" duration="33.00" routeLength="294.00" waitSteps="0" timeLoss="10.93" rerouteNo="0" devices="tripinfo_974" vType="generic" speedFactor="1.00" vaporized=""/>
    <tripinfo id="85" depart="0.00" departLane="24to30_0" departPos="3.10" departSpeed="0.00" departDelay="0.00" arrival="79.00" arrivalLane="30to36_0" arrivalPos="298.60" arrivalSpeed="13.76" duration="79.00" routeLength="592.20" waitSteps="10" timeLoss="35.53" rerouteNo="0" devices="tripinfo_85" vType="generic" speedFactor="1.00" vaporized=""/>
    <tripinfo id="3223" depart="46.00" departLane="5to6_0" departPos="3.10" departSpeed="0.00" departDelay="46.00" arrival="79.00" arrivalLane="5to6_0" arrivalPos="295.30" arrivalSpeed="13.57" duration="33.00" routeLength="292.20" waitSteps="0" timeLoss="11.53" rerouteNo="0" devices="tripinfo_3223" vType="generic" speedFactor="1.00" vaporized=""/>
    <tripinfo id="818" depart="45.00" departLane="9to8_0" departPos="3.10" departSpeed="0.00" departDelay="45.00" arrival="79.00" arrivalLane="9to8_0" arrivalPos="297.10" arrivalSpeed="13.64" duration="34.00" routeLength="294.00" waitSteps="0" timeLoss="12.57" rerouteNo="0" devices="tripinfo_818" vType="generic" speedFactor="1.00" vaporized=""/>
    <tripinfo id="137" depart="17.00" departLane="33to32_0" departPos="3.10" departSpeed="0.00" departDelay="17.00" arrival="80.00" arrivalLane="32to31_0" arrivalPos="295.30" arrivalSpeed="11.56" duration="63.00" routeLength="595.50" waitSteps="0" timeLoss="19.81" rerouteNo="0" devices="tripinfo_137" vType="generic" speedFactor="1.00" vaporized=""/>
    <tripinfo id="227" depart="16.00" departLane="2to3_0" departPos="3.10" departSpeed="0.00" departDelay="16.00" arrival="80.00" arrivalLane="3to9_0" arrivalPos="297.10" arrivalSpeed="13.62" duration="64.00" routeLength="596.10" waitSteps="0" timeLoss="20.78" rerouteNo="0" devices="tripinfo_227" vType="generic" speedFactor="1.00" vaporized=""/>
    <tripinfo id="808" depart="17.00" departLane="32to31_0" departPos="3.10" departSpeed="0.00" departDelay="17.00" arrival="81.00" arrivalLane="31to25_0" arrivalPos="298.60" arrivalSpeed="13.54" duration="64.00" routeLength="593.38" waitSteps="0" timeLoss="21.26" rerouteNo="0" devices="tripinfo_808" vType="generic" speedFactor="1.00" vaporized=""/>
    <tripinfo id="2177" depart="49.00" departLane="28to29_0" departPos="3.10" departSpeed="0.00" departDelay="49.00" arrival="82.00" arrivalLane="28to29_1" arrivalPos="297.10" arrivalSpeed="13.83" duration="33.00" routeLength="294.00" waitSteps="0" timeLoss="11.59" rerouteNo="0" devices="tripinfo_2177" vType="generic" speedFactor="1.00" vaporized=""/>
    <tripinfo id="4080" depart="50.00" departLane="24to30_0" departPos="3.10" departSpeed="0.00" departDelay="50.00" arrival="82.00" arrivalLane="24to30_0" arrivalPos="290.50" arrivalSpeed="13.85" duration="32.00" routeLength="287.40" waitSteps="0" timeLoss="10.56" rerouteNo="0" devices="tripinfo_4080" vType="generic" speedFactor="1.00" vaporized=""/>
    <tripinfo id="5220" depart="49.00" departLane="8to7_0" departPos="3.10" departSpeed="0.00" departDelay="49.00" arrival="82.00" arrivalLane="8to7_0" arrivalPos="293.80" arrivalSpeed="13.75" duration="33.00" routeLength="290.70" waitSteps="0" timeLoss="11.28" rerouteNo="0" devices="tripinfo_5220" vType="generic" speedFactor="1.00" vaporized=""/>
    <tripinfo id="220" depart="4.00" departLane="9to8_0" departPos="3.10" departSpeed="0.00" departDelay="4.00" arrival="83.00" arrivalLane="8to7_0" arrivalPos="293.80" arrivalSpeed="13.72" duration="79.00" routeLength="594.00" waitSteps="6" timeLoss="35.97" rerouteNo="0" devices="tripinfo_220" vType="generic" speedFactor="1.00" vaporized=""/>
    <tripinfo id="303" depart="8.00" departLane="27to33_0" departPos="3.10" departSpeed="0.00" departDelay="8.00" arrival="84.00" arrivalLane="33to32_0" arrivalPos="297.10" arrivalSpeed="9.70" duration="76.00" routeLength="596.10" waitSteps="5" timeLoss="32.69" rerouteNo="0" devices="tripinfo_303" vType="generic" speedFactor="1.00" vaporized=""/>
    <tripinfo id="2732" depart="53.00" departLane="32to31_0" departPos="3.10" departSpeed="0.00" departDelay="53.00" arrival="86.00" arrivalLane="32to31_0" arrivalPos="295.30" arrivalSpeed="13.90" duration="33.00" routeLength="292.20" waitSteps="0" timeLoss="11.38" rerouteNo="0" devices="tripinfo_2732" vType="generic" speedFactor="1.00" vaporized=""/>
    <tripinfo id="197" depart="16.00" departLane="34to28_0" departPos="3.10" departSpeed="0.00" departDelay="16.00" arrival="87.00" arrivalLane="28to29_1" arrivalPos="297.10" arrivalSpeed="13.85" duration="71.00" routeLength="598.95" waitSteps="0" timeLoss="27.15" rerouteNo="0" devices="tripinfo_197" vType="generic" speedFactor="1.00" vaporized=""/>
    <tripinfo id="4108" depart="55.00" departLane="20to19_0" departPos="3.10" departSpeed="0.00" departDelay="55.00" arrival="88.00" arrivalLane="20to19_0" arrivalPos="293.80" arrivalSpeed="13.63" duration="33.00" routeLength="290.70" waitSteps="0" timeLoss="11.23" rerouteNo="0" devices="tripinfo_4108" vType="generic" speedFactor="1.00" vaporized=""/>
    <tripinfo id="4158" depart="54.00" departLane="24to30_0" departPos="3.10" departSpeed="0.00" departDelay="54.00" arrival="88.00" arrivalLane="24to30_0" arrivalPos="290.50" arrivalSpeed="13.89" duration="34.00" routeLength="287.40" waitSteps="0" timeLoss="12.38" rerouteNo="0" devices="tripinfo_4158" vType="generic" speedFactor="1.00" vaporized=""/>
    <tripinfo id="406" depart="30.00" departLane="3to9_0" departPos="3.10" departSpeed="0.00" departDelay="30.00" arrival="89.00" arrivalLane="9to15_2" arrivalPos="290.50" arrivalSpeed="13.73" duration="59.00" routeLength="591.23" waitSteps="1" timeLoss="15.53" rerouteNo="0" devices="tripinfo_406" vType="generic" speedFactor="1.00" vaporized=""/>