<?xml version="1.0" encoding="UTF-8"?>

<!-- generated on Mon Mar  5 14:15:31 2018 by SUMO Version 0.32.0
<?xml version="1.0" encoding="UTF-8"?>

<configuration xmlns:xsi="http://www.w3.org/2001/XMLSchema-instance" xsi:noNamespaceSchemaLocation="http://sumo.dlr.de/xsd/sumoConfiguration.xsd">

    <input>
        <net-file value="data/cross.net.xml"/>
        <route-files value="data/cross.rou.xml"/>
        <additional-files value="data/extraInfo.xml"/>
    </input>

    <output>
        <tripinfo-output value="tripinfo.xml"/>
    </output>

    <time>
        <begin value="0"/>
        <end value="3600"/>
    </time>

    <processing>
        <max-num-vehicles value="900"/>
    </processing>

    <report>
        <verbose value="true"/>
        <no-step-log value="true"/>
    </report>

    <traci_server>
        <remote-port value="33252"/>
    </traci_server>

</configuration>
-->

<detector xmlns:xsi="http://www.w3.org/2001/XMLSchema-instance" xsi:noNamespaceSchemaLocation="http://sumo.dlr.de/xsd/det_e1_file.xsd">
    <interval begin="0.00" end="30.00" id="0" nVehContrib="2" flow="240.00" occupancy="1.50" speed="13.53" length="3.00" nVehEntered="3"/>
    <interval begin="30.00" end="60.00" id="0" nVehContrib="8" flow="960.00" occupancy="5.97" speed="13.35" length="3.00" nVehEntered="7"/>
    <interval begin="60.00" end="90.00" id="0" nVehContrib="8" flow="960.00" occupancy="5.92" speed="13.51" length="3.00" nVehEntered="8"/>
    <interval begin="90.00" end="120.00" id="0" nVehContrib="8" flow="960.00" occupancy="5.99" speed="13.37" length="3.00" nVehEntered="8"/>
    <interval begin="120.00" end="150.00" id="0" nVehContrib="9" flow="1080.00" occupancy="6.68" speed="13.48" length="3.00" nVehEntered="9"/>
    <interval begin="150.00" end="180.00" id="0" nVehContrib="7" flow="840.00" occupancy="5.18" speed="13.51" length="3.00" nVehEntered="7"/>
    <interval begin="180.00" end="210.00" id="0" nVehContrib="4" flow="480.00" occupancy="2.98" speed="13.44" length="3.00" nVehEntered="4"/>
    <interval begin="210.00" end="240.00" id="0" nVehContrib="6" flow="720.00" occupancy="4.52" speed="13.28" length="3.00" nVehEntered="6"/>
    <interval begin="240.00" end="270.00" id="0" nVehContrib="5" flow="600.00" occupancy="3.69" speed="13.55" length="3.00" nVehEntered="5"/>
    <interval begin="270.00" end="300.00" id="0" nVehContrib="4" flow="480.00" occupancy="2.96" speed="13.51" length="3.00" nVehEntered="4"/>
    <interval begin="300.00" end="330.00" id="0" nVehContrib="4" flow="480.00" occupancy="2.92" speed="13.68" length="3.00" nVehEntered="4"/>
    <interval begin="330.00" end="360.00" id="0" nVehContrib="1" flow="120.00" occupancy="0.74" speed="13.46" length="3.00" nVehEntered="1"/>
    <interval begin="360.00" end="390.00" id="0" nVehContrib="1" flow="120.00" occupancy="0.78" speed="12.78" length="3.00" nVehEntered="1"/>
    <interval begin="390.00" end="420.00" id="0" nVehContrib="4" flow="480.00" occupancy="2.91" speed="13.76" length="3.00" nVehEntered="4"/>
    <interval begin="420.00" end="450.00" id="0" nVehContrib="2" flow="240.00" occupancy="1.48" speed="13.52" length="3.00" nVehEntered="2"/>
    <interval begin="450.00" end="480.00" id="0" nVehContrib="1" flow="120.00" occupancy="0.73" speed="13.70" length="3.00" nVehEntered="1"/>
    <interval begin="480.00" end="510.00" id="0" nVehContrib="5" flow="600.00" occupancy="3.70" speed="13.52" length="3.00" nVehEntered="5"/>
    <interval begin="510.00" end="540.00" id="0" nVehContrib="5" flow="600.00" occupancy="3.84" speed="13.05" length="3.00" nVehEntered="5"/>
    <interval begin="540.00" end="570.00" id="0" nVehContrib="3" flow="360.00" occupancy="2.19" speed="13.69" length="3.00" nVehEntered="3"/>
    <interval begin="570.00" end="600.00" id="0" nVehContrib="3" flow="360.00" occupancy="2.19" speed="13.68" length="3.00" nVehEntered="3"/>
    <interval begin="600.00" end="630.00" id="0" nVehContrib="6" flow="720.00" occupancy="4.54" speed="13.23" length="3.00" nVehEntered="6"/>
    <interval begin="630.00" end="660.00" id="0" nVehContrib="6" flow="720.00" occupancy="4.46" speed="13.45" length="3.00" nVehEntered="6"/>
    <interval begin="660.00" end="690.00" id="0" nVehContrib="4" flow="480.00" occupancy="3.02" speed="13.24" length="3.00" nVehEntered="4"/>
    <interval begin="690.00" end="720.00" id="0" nVehContrib="1" flow="120.00" occupancy="0.73" speed="13.66" length="3.00" nVehEntered="1"/>
    <interval begin="720.00" end="750.00" id="0" nVehContrib="5" flow="600.00" occupancy="3.72" speed="13.44" length="3.00" nVehEntered="5"/>
    <interval begin="750.00" end="780.00" id="0" nVehContrib="2" flow="240.00" occupancy="1.49" speed="13.47" length="3.00" nVehEntered="2"/>
    <interval begin="780.00" end="810.00" id="0" nVehContrib="4" flow="480.00" occupancy="2.94" speed="13.59" length="3.00" nVehEntered="4"/>
    <interval begin="810.00" end="840.00" id="0" nVehContrib="3" flow="360.00" occupancy="2.24" speed="13.41" length="3.00" nVehEntered="3"/>
    <interval begin="840.00" end="870.00" id="0" nVehContrib="1" flow="120.00" occupancy="0.74" speed="13.58" length="3.00" nVehEntered="1"/>
    <interval begin="870.00" end="900.00" id="0" nVehContrib="5" flow="600.00" occupancy="3.70" speed="13.51" length="3.00" nVehEntered="5"/>
    <interval begin="900.00" end="930.00" id="0" nVehContrib="2" flow="240.00" occupancy="1.57" speed="12.76" length="3.00" nVehEntered="2"/>
    <interval begin="930.00" end="960.00" id="0" nVehContrib="5" flow="600.00" occupancy="3.84" speed="13.02" length="3.00" nVehEntered="5"/>
    <interval begin="960.00" end="990.00" id="0" nVehContrib="3" flow="360.00" occupancy="2.17" speed="13.80" length="3.00" nVehEntered="3"/>
    <interval begin="990.00" end="1020.00" id="0" nVehContrib="4" flow="480.00" occupancy="3.01" speed="13.30" length="3.00" nVehEntered="4"/>
    <interval begin="1020.00" end="1050.00" id="0" nVehContrib="4" flow="480.00" occupancy="3.49" speed="13.77" length="3.00" nVehEntered="5"/>
    <interval begin="1050.00" end="1080.00" id="0" nVehContrib="4" flow="480.00" occupancy="2.34" speed="13.65" length="3.00" nVehEntered="3"/>
    <interval begin="1080.00" end="1110.00" id="0" nVehContrib="2" flow="240.00" occupancy="1.52" speed="13.15" length="3.00" nVehEntered="2"/>
    <interval begin="1110.00" end="1140.00" id="0" nVehContrib="3" flow="360.00" occupancy="2.23" speed="13.47" length="3.00" nVehEntered="3"/>
    <interval begin="1140.00" end="1170.00" id="0" nVehContrib="5" flow="600.00" occupancy="3.75" speed="13.33" length="3.00" nVehEntered="5"/>
    <interval begin="1170.00" end="1200.00" id="0" nVehContrib="1" flow="120.00" occupancy="0.73" speed="13.77" length="3.00" nVehEntered="1"/>
    <interval begin="1200.00" end="1230.00" id="0" nVehContrib="1" flow="120.00" occupancy="0.74" speed="13.46" length="3.00" nVehEntered="1"/>
    <interval begin="1230.00" end="1260.00" id="0" nVehContrib="3" flow="360.00" occupancy="2.19" speed="13.73" length="3.00" nVehEntered="3"/>
    <interval begin="1260.00" end="1290.00" id="0" nVehContrib="2" flow="240.00" occupancy="1.49" speed="13.46" length="3.00" nVehEntered="2"/>
    <interval begin="1290.00" end="1320.00" id="0" nVehContrib="4" flow="480.00" occupancy="2.90" speed="13.78" length="3.00" nVehEntered="4"/>
    <interval begin="1320.00" end="1350.00" id="0" nVehContrib="1" flow="120.00" occupancy="0.74" speed="13.58" length="3.00" nVehEntered="1"/>
    <interval begin="1350.00" end="1380.00" id="0" nVehContrib="0" flow="0.00" occupancy="0.00" speed="-1.00" length="-1.00" nVehEntered="0"/>
    <interval begin="1380.00" end="1410.00" id="0" nVehContrib="0" flow="0.00" occupancy="0.00" speed="-1.00" length="-1.00" nVehEntered="0"/>
    <interval begin="1410.00" end="1440.00" id="0" nVehContrib="1" flow="120.00" occupancy="0.72" speed="13.83" length="3.00" nVehEntered="1"/>
    <interval begin="1440.00" end="1470.00" id="0" nVehContrib="3" flow="360.00" occupancy="2.21" speed="13.60" length="3.00" nVehEntered="3"/>
    <interval begin="1470.00" end="1500.00" id="0" nVehContrib="5" flow="600.00" occupancy="3.73" speed="13.42" length="3.00" nVehEntered="5"/>
    <interval begin="1500.00" end="1530.00" id="0" nVehContrib="1" flow="120.00" occupancy="0.73" speed="13.79" length="3.00" nVehEntered="1"/>
    <interval begin="1530.00" end="1560.00" id="0" nVehContrib="2" flow="240.00" occupancy="1.48" speed="13.54" length="3.00" nVehEntered="2"/>
    <interval begin="1560.00" end="1590.00" id="0" nVehContrib="2" flow="240.00" occupancy="1.89" speed="13.19" length="3.00" nVehEntered="3"/>
    <interval begin="1590.00" end="1620.00" id="0" nVehContrib="5" flow="600.00" occupancy="3.41" speed="13.21" length="3.00" nVehEntered="4"/>
    <interval begin="1620.00" end="1650.00" id="0" nVehContrib="3" flow="360.00" occupancy="2.21" speed="13.58" length="3.00" nVehEntered="3"/>
    <interval begin="1650.00" end="1680.00" id="0" nVehContrib="1" flow="120.00" occupancy="0.72" speed="13.81" length="3.00" nVehEntered="1"/>
    <interval begin="1680.00" end="1710.00" id="0" nVehContrib="1" flow="120.00" occupancy="0.74" speed="13.57" length="3.00" nVehEntered="1"/>
    <interval begin="1710.00" end="1740.00" id="0" nVehContrib="3" flow="360.00" occupancy="2.22" speed="13.55" length="3.00" nVehEntered="3"/>
    <interval begin="1740.00" end="1770.00" id="0" nVehContrib="2" flow="240.00" occupancy="1.53" speed="13.11" length="3.00" nVehEntered="2"/>
    <interval begin="1770.00" end="1800.00" id="0" nVehContrib="1" flow="120.00" occupancy="0.72" speed="13.89" length="3.00" nVehEntered="1"/>
    <interval begin="1800.00" end="1830.00" id="0" nVehContrib="2" flow="240.00" occupancy="1.76" speed="13.46" length="3.00" nVehEntered="3"/>
    <interval begin="1830.00" end="1860.00" id="0" nVehContrib="3" flow="360.00" occupancy="2.01" speed="13.18" length="3.00" nVehEntered="2"/>
    <interval begin="1860.00" end="1890.00" id="0" nVehContrib="2" flow="240.00" occupancy="1.50" speed="13.38" length="3.00" nVehEntered="2"/>
    <interval begin="1890.00" end="1920.00" id="0" nVehContrib="2" flow="240.00" occupancy="1.50" speed="13.37" length="3.00" nVehEntered="2"/>
    <interval begin="1920.00" end="1950.00" id="0" nVehContrib="1" flow="120.00" occupancy="0.73" speed="13.79" length="3.00" nVehEntered="1"/>
    <interval begin="1950.00" end="1980.00" id="0" nVehContrib="4" flow="480.00" occupancy="2.98" speed="13.42" length="3.00" nVehEntered="4"/>
    <interval begin="1980.00" end="2010.00" id="0" nVehContrib="4" flow="480.00" occupancy="3.00" speed="13.33" length="3.00" nVehEntered="4"/>
    <interval begin="2010.00" end="2040.00" id="0" nVehContrib="0" flow="0.00" occupancy="0.00" speed="-1.00" length="-1.00" nVehEntered="0"/>
    <interval begin="2040.00" end="2070.00" id="0" nVehContrib="2" flow="240.00" occupancy="1.54" speed="13.01" length="3.00" nVehEntered="2"/>
    <interval begin="2070.00" end="2100.00" id="0" nVehContrib="1" flow="120.00" occupancy="0.75" speed="13.41" length="3.00" nVehEntered="1"/>
    <interval begin="2100.00" end="2130.00" id="0" nVehContrib="1" flow="120.00" occupancy="0.76" speed="13.18" length="3.00" nVehEntered="1"/>
    <interval begin="2130.00" end="2160.00" id="0" nVehContrib="3" flow="360.00" occupancy="2.23" speed="13.44" length="3.00" nVehEntered="3"/>
    <interval begin="2160.00" end="2190.00" id="0" nVehContrib="1" flow="120.00" occupancy="0.74" speed="13.57" length="3.00" nVehEntered="1"/>
    <interval begin="2190.00" end="2220.00" id="0" nVehContrib="3" flow="360.00" occupancy="2.24" speed="13.40" length="3.00" nVehEntered="3"/>
    <interval begin="2220.00" end="2250.00" id="0" nVehContrib="4" flow="480.00" occupancy="3.04" speed="13.16" length="3.00" nVehEntered="4"/>
    <interval begin="2250.00" end="2280.00" id="0" nVehContrib="0" flow="0.00" occupancy="0.00" speed="-1.00" length="-1.00" nVehEntered="0"/>
    <interval begin="2280.00" end="2310.00" id="0" nVehContrib="4" flow="480.00" occupancy="2.93" speed="13.66" length="3.00" nVehEntered="4"/>
    <interval begin="2310.00" end="2340.00" id="0" nVehContrib="2" flow="240.00" occupancy="1.51" speed="13.24" length="3.00" nVehEntered="2"/>
    <interval begin="2340.00" end="2370.00" id="0" nVehContrib="4" flow="480.00" occupancy="2.96" speed="13.52" length="3.00" nVehEntered="4"/>
    <interval begin="2370.00" end="2400.00" id="0" nVehContrib="2" flow="240.00" occupancy="1.50" speed="13.31" length="3.00" nVehEntered="2"/>
    <interval begin="2400.00" end="2430.00" id="0" nVehContrib="1" flow="120.00" occupancy="0.74" speed="13.51" length="3.00" nVehEntered="1"/>
    <interval begin="2430.00" end="2460.00" id="0" nVehContrib="4" flow="480.00" occupancy="3.04" speed="13.18" length="3.00" nVehEntered="4"/>
    <interval begin="2460.00" end="2490.00" id="0" nVehContrib="3" flow="360.00" occupancy="2.26" speed="13.30" length="3.00" nVehEntered="3"/>
    <interval begin="2490.00" end="2520.00" id="0" nVehContrib="2" flow="240.00" occupancy="1.49" speed="13.42" length="3.00" nVehEntered="2"/>
    <interval begin="2520.00" end="2550.00" id="0" nVehContrib="2" flow="240.00" occupancy="1.52" speed="13.19" length="3.00" nVehEntered="2"/>
    <interval begin="2550.00" end="2580.00" id="0" nVehContrib="2" flow="240.00" occupancy="1.51" speed="13.25" length="3.00" nVehEntered="2"/>
    <interval begin="2580.00" end="2610.00" id="0" nVehContrib="3" flow="360.00" occupancy="2.29" speed="13.11" length="3.00" nVehEntered="3"/>
    <interval begin="2610.00" end="2640.00" id="0" nVehContrib="1" flow="120.00" occupancy="0.75" speed="13.41" length="3.00" nVehEntered="1"/>
    <interval begin="2640.00" end="2670.00" id="0" nVehContrib="0" flow="0.00" occupancy="0.00" speed="-1.00" length="-1.00" nVehEntered="0"/>
    <interval begin="2670.00" end="2700.00" id="0" nVehContrib="3" flow="360.00" occupancy="2.27" speed="13.23" length="3.00" nVehEntered="3"/>
    <interval begin="2700.00" end="2730.00" id="0" nVehContrib="1" flow="120.00" occupancy="0.76" speed="13.18" length="3.00" nVehEntered="1"/>
    <interval begin="2730.00" end="2760.00" id="0" nVehContrib="0" flow="0.00" occupancy="0.00" speed="-1.00" length="-1.00" nVehEntered="0"/>
    <interval begin="2760.00" end="2790.00" id="0" nVehContrib="1" flow="120.00" occupancy="0.77" speed="12.97" length="3.00" nVehEntered="1"/>
    <interval begin="2790.00" end="2820.00" id="0" nVehContrib="1" flow="120.00" occupancy="0.73" speed="13.69" length="3.00" nVehEntered="1"/>
    <interval begin="2820.00" end="2850.00" id="0" nVehContrib="0" flow="0.00" occupancy="0.00" speed="-1.00" length="-1.00" nVehEntered="0"/>
    <interval begin="2850.00" end="2880.00" id="0" nVehContrib="0" flow="0.00" occupancy="0.00" speed="-1.00" length="-1.00" nVehEntered="0"/>
    <interval begin="2880.00" end="2910.00" id="0" nVehContrib="0" flow="0.00" occupancy="0.00" speed="-1.00" length="-1.00" nVehEntered="0"/>
    <interval begin="2910.00" end="2940.00" id="0" nVehContrib="2" flow="240.00" occupancy="1.51" speed="13.28" length="3.00" nVehEntered="2"/>
    <interval begin="2940.00" end="2970.00" id="0" nVehContrib="0" flow="0.00" occupancy="0.00" speed="-1.00" length="-1.00" nVehEntered="0"/>
    <interval begin="2970.00" end="3000.00" id="0" nVehContrib="1" flow="120.00" occupancy="0.72" speed="13.81" length="3.00" nVehEntered="1"/>
    <interval begin="3000.00" end="3030.00" id="0" nVehContrib="1" flow="120.00" occupancy="0.74" speed="13.56" length="3.00" nVehEntered="1"/>
    <interval begin="3030.00" end="3060.00" id="0" nVehContrib="2" flow="240.00" occupancy="1.49" speed="13.40" length="3.00" nVehEntered="2"/>
    <interval begin="3060.00" end="3090.00" id="0" nVehContrib="1" flow="120.00" occupancy="0.72" speed="13.80" length="3.00" nVehEntered="1"/>
    <interval begin="3090.00" end="3120.00" id="0" nVehContrib="4" flow="480.00" occupancy="2.98" speed="13.41" length="3.00" nVehEntered="4"/>
    <interval begin="3120.00" end="3150.00" id="0" nVehContrib="3" flow="360.00" occupancy="2.23" speed="13.48" length="3.00" nVehEntered="3"/>
    <interval begin="3150.00" end="3180.00" id="0" nVehContrib="1" flow="120.00" occupancy="0.74" speed="13.48" length="3.00" nVehEntered="1"/>
    <interval begin="3180.00" end="3210.00" id="0" nVehContrib="1" flow="120.00" occupancy="0.72" speed="13.87" length="3.00" nVehEntered="1"/>
    <interval begin="3210.00" end="3240.00" id="0" nVehContrib="4" flow="480.00" occupancy="2.92" speed="13.71" length="3.00" nVehEntered="4"/>
    <interval begin="3240.00" end="3270.00" id="0" nVehContrib="3" flow="360.00" occupancy="2.22" speed="13.54" length="3.00" nVehEntered="3"/>
    <interval begin="3270.00" end="3300.00" id="0" nVehContrib="0" flow="0.00" occupancy="0.00" speed="-1.00" length="-1.00" nVehEntered="0"/>
    <interval begin="3300.00" end="3330.00" id="0" nVehContrib="1" flow="120.00" occupancy="0.72" speed="13.88" length="3.00" nVehEntered="1"/>
    <interval begin="3330.00" end="3360.00" id="0" nVehContrib="1" flow="120.00" occupancy="0.74" speed="13.54" length="3.00" nVehEntered="1"/>
    <interval begin="3360.00" end="3390.00" id="0" nVehContrib="3" flow="360.00" occupancy="2.25" speed="13.35" length="3.00" nVehEntered="3"/>
    <interval begin="3390.00" end="3420.00" id="0" nVehContrib="1" flow="120.00" occupancy="0.74" speed="13.54" length="3.00" nVehEntered="1"/>
    <interval begin="3420.00" end="3450.00" id="0" nVehContrib="1" flow="120.00" occupancy="0.72" speed="13.84" length="3.00" nVehEntered="1"/>
    <interval begin="3450.00" end="3480.00" id="0" nVehContrib="1" flow="120.00" occupancy="0.74" speed="13.56" length="3.00" nVehEntered="1"/>
    <interval begin="3480.00" end="3510.00" id="0" nVehContrib="1" flow="120.00" occupancy="0.74" speed="13.47" length="3.00" nVehEntered="1"/>
    <interval begin="3510.00" end="3540.00" id="0" nVehContrib="1" flow="120.00" occupancy="0.75" speed="13.29" length="3.00" nVehEntered="1"/>
    <interval begin="3540.00" end="3570.00" id="0" nVehContrib="0" flow="0.00" occupancy="0.00" speed="-1.00" length="-1.00" nVehEntered="0"/>
    <interval begin="3570.00" end="3600.00" id="0" nVehContrib="1" flow="120.00" occupancy="0.73" speed="13.72" length="3.00" nVehEntered="1"/>
    <interval begin="3600.00" end="3601.00" id="0" nVehContrib="0" flow="0.00" occupancy="0.00" speed="-1.00" length="-1.00" nVehEntered="0"/>
</detector>
