<?xml version="1.0" encoding="UTF-8"?>

<!-- generated on Mon Mar  5 01:13:02 2018 by SUMO Version 0.32.0
<?xml version="1.0" encoding="UTF-8"?>

<configuration xmlns:xsi="http://www.w3.org/2001/XMLSchema-instance" xsi:noNamespaceSchemaLocation="http://sumo.dlr.de/xsd/sumoConfiguration.xsd">

    <input>
        <net-file value="data/cross.net.xml"/>
        <route-files value="data/cross.rou.xml"/>
        <additional-files value="data/extraInfo.xml"/>
    </input>

    <output>
        <tripinfo-output value="tripinfo.xml"/>
    </output>

    <time>
        <begin value="0"/>
        <end value="3600"/>
    </time>

    <processing>
        <max-num-vehicles value="900"/>
    </processing>

    <report>
        <verbose value="true"/>
        <no-step-log value="true"/>
    </report>

    <traci_server>
        <remote-port value="36176"/>
    </traci_server>

</configuration>
-->

<meandata xmlns:xsi="http://www.w3.org/2001/XMLSchema-instance" xsi:noNamespaceSchemaLocation="http://sumo.dlr.de/xsd/meandata_file.xsd">
    <interval begin="0.00" end="3600.00" id="1to2">
        <edge id="10to4" sampledSeconds="7339.33" traveltime="53.30" overlapTraveltime="54.13" density="6.86" occupancy="2.04" waitingTime="2083.00" speed="5.54" departed="35" arrived="19" entered="101" left="117" laneChangedFrom="0" laneChangedTo="0"/>
        <edge id="10to9" sampledSeconds="6300.02" traveltime="42.98" overlapTraveltime="43.60" density="6.16" occupancy="1.83" waitingTime="1386.00" speed="6.58" departed="38" arrived="41" entered="107" left="103" laneChangedFrom="0" laneChangedTo="0"/>
        <edge id="11to10" sampledSeconds="3972.08" traveltime="42.14" overlapTraveltime="42.87" density="3.71" occupancy="1.10" waitingTime="876.00" speed="7.00" departed="30" arrived="12" entered="63" left="81" laneChangedFrom="0" laneChangedTo="0"/>
        <edge id="11to17" sampledSeconds="185908.23" traveltime="1091.67" overlapTraveltime="1094.70" density="177.77" occupancy="53.29" waitingTime="164960.00" speed="0.27" departed="40" arrived="14" entered="163" left="132" laneChangedFrom="0" laneChangedTo="0"/>
        <edge id="12to11" sampledSeconds="24742.49" traveltime="196.49" overlapTraveltime="197.51" density="23.39" occupancy="7.00" waitingTime="18656.00" speed="1.50" departed="60" arrived="7" entered="66" left="117" laneChangedFrom="0" laneChangedTo="0"/>
        <edge id="12to18" sampledSeconds="2405.49" traveltime="35.87" overlapTraveltime="36.55" density="2.30" occupancy="0.68" waitingTime="452.00" speed="8.03" departed="13" arrived="28" entered="53" left="38" laneChangedFrom="0" laneChangedTo="0"/>
        <edge id="13to14" sampledSeconds="44373.02" traveltime="466.06" overlapTraveltime="467.65" density="41.95" occupancy="12.58" waitingTime="39502.00" speed="0.63" departed="48" arrived="4" entered="49" left="80" laneChangedFrom="0" laneChangedTo="0"/>
        <edge id="13to7" sampledSeconds="8858.32" traveltime="68.11" overlapTraveltime="68.84" density="8.47" occupancy="2.52" waitingTime="4109.00" speed="4.26" departed="23" arrived="32" entered="106" left="97" laneChangedFrom="0" laneChangedTo="0"/>
        <edge id="14to15" sampledSeconds="190608.29" traveltime="1341.70" overlapTraveltime="1345.13" density="178.21" occupancy="53.44" waitingTime="174747.00" speed="0.22" departed="37" arrived="11" entered="148" left="115" laneChangedFrom="0" laneChangedTo="0"/>
        <edge id="14to8" sampledSeconds="4665.55" traveltime="46.49" overlapTraveltime="47.26" density="4.46" occupancy="1.32" waitingTime="1074.00" speed="6.21" departed="21" arrived="22" entered="78" left="77" laneChangedFrom="0" laneChangedTo="0"/>
        <edge id="15to16" sampledSeconds="180011.44" traveltime="1017.92" overlapTraveltime="1020.44" density="176.13" occupancy="52.77" waitingTime="159819.00" speed="0.28" departed="37" arrived="9" entered="178" left="148" laneChangedFrom="0" laneChangedTo="0"/>
        <edge id="15to21" sampledSeconds="34166.79" traveltime="129.32" overlapTraveltime="130.15" density="31.94" occupancy="3.18" waitingTime="25309.00" speed="2.31" departed="29" arrived="19" entered="235" left="236" laneChangedFrom="190" laneChangedTo="190"/>
        <edge id="16to10" sampledSeconds="11080.81" traveltime="67.21" overlapTraveltime="67.81" density="10.60" occupancy="3.15" waitingTime="4352.00" speed="4.33" departed="38" arrived="34" entered="126" left="127" laneChangedFrom="0" laneChangedTo="0"/>
        <edge id="16to17" sampledSeconds="186982.90" traveltime="1297.44" overlapTraveltime="1301.05" density="174.82" occupancy="52.42" waitingTime="167710.00" speed="0.23" departed="35" arrived="15" entered="150" left="110" laneChangedFrom="0" laneChangedTo="0"/>
        <edge id="17to18" sampledSeconds="1999.43" traveltime="46.00" overlapTraveltime="46.65" density="1.89" occupancy="0.56" waitingTime="587.00" speed="6.36" departed="10" arrived="20" entered="33" left="23" laneChangedFrom="0" laneChangedTo="0"/>
        <edge id="17to23" sampledSeconds="187126.28" traveltime="854.18" overlapTraveltime="856.25" density="174.96" occupancy="52.44" waitingTime="161988.00" speed="0.35" departed="49" arrived="15" entered="209" left="183" laneChangedFrom="0" laneChangedTo="0"/>
        <edge id="18to24" sampledSeconds="4010.40" traveltime="30.97" overlapTraveltime="31.28" density="3.75" occupancy="1.11" waitingTime="19.00" speed="9.59" departed="68" arrived="57" entered="61" left="72" laneChangedFrom="0" laneChangedTo="0"/>
        <edge id="19to13" sampledSeconds="5960.86" traveltime="29.69" overlapTraveltime="30.06" density="5.57" occupancy="1.65" waitingTime="50.00" speed="9.98" departed="59" arrived="44" entered="140" left="155" laneChangedFrom="0" laneChangedTo="0"/>
        <edge id="1to2" sampledSeconds="23097.61" traveltime="114.63" overlapTraveltime="115.38" density="21.73" occupancy="6.49" waitingTime="11471.00" speed="2.59" departed="76" arrived="9" entered="125" left="192" laneChangedFrom="0" laneChangedTo="0"/>
        <edge id="20to14" sampledSeconds="188479.15" traveltime="1024.80" overlapTraveltime="1027.35" density="176.22" occupancy="52.79" waitingTime="169750.00" speed="0.29" departed="66" arrived="21" entered="162" left="146" laneChangedFrom="0" laneChangedTo="0"/>
        <edge id="20to19" sampledSeconds="4162.25" traveltime="46.73" overlapTraveltime="47.44" density="3.94" occupancy="1.17" waitingTime="1268.00" speed="6.26" departed="20" arrived="30" entered="68" left="58" laneChangedFrom="0" laneChangedTo="0"/>
        <edge id="21to20" sampledSeconds="188434.11" traveltime="1017.60" overlapTraveltime="1020.46" density="176.18" occupancy="52.81" waitingTime="162655.00" speed="0.29" departed="42" arrived="20" entered="175" left="142" laneChangedFrom="0" laneChangedTo="0"/>
        <edge id="21to27" sampledSeconds="11235.13" traveltime="43.93" overlapTraveltime="44.45" density="10.99" occupancy="1.09" waitingTime="3365.00" speed="6.45" departed="21" arrived="26" entered="232" left="227" laneChangedFrom="75" laneChangedTo="75"/>
        <edge id="22to16" sampledSeconds="177388.40" traveltime="1023.89" overlapTraveltime="1026.84" density="165.85" occupancy="49.73" waitingTime="160250.00" speed="0.29" departed="24" arrived="23" entered="181" left="128" laneChangedFrom="0" laneChangedTo="0"/>
        <edge id="22to21" sampledSeconds="72344.49" traveltime="340.29" overlapTraveltime="341.47" density="70.78" occupancy="21.20" waitingTime="56823.00" speed="0.84" departed="36" arrived="15" entered="193" left="171" laneChangedFrom="0" laneChangedTo="0"/>
        <edge id="23to22" sampledSeconds="186824.73" traveltime="801.63" overlapTraveltime="803.13" density="174.67" occupancy="52.35" waitingTime="161489.00" speed="0.37" departed="47" arrived="9" entered="215" left="210" laneChangedFrom="0" laneChangedTo="0"/>
        <edge id="23to29" sampledSeconds="4942.45" traveltime="49.90" overlapTraveltime="50.59" density="4.84" occupancy="1.43" waitingTime="1749.00" speed="5.67" departed="21" arrived="18" entered="77" left="80" laneChangedFrom="0" laneChangedTo="0"/>
        <edge id="24to23" sampledSeconds="55383.71" traveltime="471.44" overlapTraveltime="472.86" density="52.36" occupancy="15.69" waitingTime="46886.00" speed="0.63" departed="60" arrived="3" entered="58" left="111" laneChangedFrom="0" laneChangedTo="0"/>
        <edge id="24to30" sampledSeconds="1150.66" traveltime="39.33" overlapTraveltime="39.98" density="1.10" occupancy="0.33" waitingTime="229.00" speed="7.34" departed="15" arrived="14" entered="14" left="15" laneChangedFrom="0" laneChangedTo="0"/>
        <edge id="25to19" sampledSeconds="5685.91" traveltime="58.08" overlapTraveltime="58.82" density="5.44" occupancy="1.62" waitingTime="2138.00" speed="4.99" departed="27" arrived="15" entered="70" left="82" laneChangedFrom="0" laneChangedTo="0"/>
        <edge id="25to26" sampledSeconds="24203.41" traveltime="252.89" overlapTraveltime="253.91" density="22.88" occupancy="6.85" waitingTime="20173.00" speed="1.17" departed="48" arrived="6" entered="48" left="88" laneChangedFrom="0" laneChangedTo="0"/>
        <edge id="26to20" sampledSeconds="188163.61" traveltime="1548.56" overlapTraveltime="1553.88" density="179.92" occupancy="53.95" waitingTime="170331.00" speed="0.19" departed="26" arrived="14" entered="135" left="89" laneChangedFrom="0" laneChangedTo="0"/>
        <edge id="26to27" sampledSeconds="5293.31" traveltime="51.41" overlapTraveltime="52.07" density="4.95" occupancy="1.47" waitingTime="1627.00" speed="5.76" departed="27" arrived="17" entered="75" left="85" laneChangedFrom="0" laneChangedTo="0"/>
        <edge id="27to28" sampledSeconds="7348.03" traveltime="45.92" overlapTraveltime="46.66" density="7.19" occupancy="0.71" waitingTime="2687.00" speed="6.15" departed="40" arrived="45" entered="118" left="113" laneChangedFrom="126" laneChangedTo="126"/>
        <edge id="27to33" sampledSeconds="24293.08" traveltime="106.77" overlapTraveltime="107.52" density="22.71" occupancy="6.78" waitingTime="12479.00" speed="2.79" departed="33" arrived="46" entered="194" left="173" laneChangedFrom="0" laneChangedTo="0"/>
        <edge id="28to22" sampledSeconds="178353.04" traveltime="892.34" overlapTraveltime="894.63" density="174.51" occupancy="52.32" waitingTime="156155.00" speed="0.32" departed="58" arrived="11" entered="171" left="164" laneChangedFrom="0" laneChangedTo="0"/>
        <edge id="28to29" sampledSeconds="4392.03" traveltime="39.37" overlapTraveltime="40.00" density="4.11" occupancy="0.40" waitingTime="1056.00" speed="7.50" departed="18" arrived="24" entered="92" left="86" laneChangedFrom="73" laneChangedTo="73"/>
        <edge id="29to30" sampledSeconds="2986.75" traveltime="33.00" overlapTraveltime="33.60" density="2.82" occupancy="0.83" waitingTime="543.00" speed="8.83" departed="5" arrived="49" entered="84" left="40" laneChangedFrom="0" laneChangedTo="0"/>
        <edge id="29to35" sampledSeconds="7619.79" traveltime="50.32" overlapTraveltime="51.01" density="7.12" occupancy="2.12" waitingTime="2055.00" speed="5.88" departed="69" arrived="46" entered="82" left="104" laneChangedFrom="0" laneChangedTo="0"/>
        <edge id="2to3" sampledSeconds="12688.15" traveltime="30.81" overlapTraveltime="31.16" density="11.86" occupancy="3.51" waitingTime="58.00" speed="9.63" departed="69" arrived="44" entered="339" left="364" laneChangedFrom="0" laneChangedTo="0"/>
        <edge id="30to36" sampledSeconds="3646.27" traveltime="31.21" overlapTraveltime="31.63" density="3.39" occupancy="1.01" waitingTime="11.00" speed="9.54" departed="61" arrived="56" entered="55" left="60" laneChangedFrom="0" laneChangedTo="0"/>
        <edge id="31to25" sampledSeconds="4851.64" traveltime="29.92" overlapTraveltime="30.29" density="4.51" occupancy="1.34" waitingTime="23.00" speed="9.96" departed="73" arrived="43" entered="88" left="118" laneChangedFrom="0" laneChangedTo="0"/>
        <edge id="32to26" sampledSeconds="185573.74" traveltime="1078.99" overlapTraveltime="1082.20" density="173.50" occupancy="51.36" waitingTime="168665.20" speed="0.28" departed="47" arrived="21" entered="155" left="122" laneChangedFrom="0" laneChangedTo="0"/>
        <edge id="32to31" sampledSeconds="3549.64" traveltime="26.55" overlapTraveltime="26.96" density="3.34" occupancy="0.99" waitingTime="13.00" speed="11.06" departed="18" arrived="43" entered="115" left="88" laneChangedFrom="0" laneChangedTo="0"/>
        <edge id="33to32" sampledSeconds="134233.74" traveltime="393.42" overlapTraveltime="399.43" density="125.50" occupancy="37.57" waitingTime="114940.00" speed="0.75" departed="61" arrived="42" entered="304" left="271" laneChangedFrom="0" laneChangedTo="0"/>
        <edge id="34to28" sampledSeconds="39471.50" traveltime="228.92" overlapTraveltime="229.95" density="36.90" occupancy="11.05" waitingTime="29684.00" speed="1.31" departed="49" arrived="10" entered="125" left="150" laneChangedFrom="0" laneChangedTo="0"/>
        <edge id="34to33" sampledSeconds="11849.62" traveltime="76.48" overlapTraveltime="77.29" density="11.33" occupancy="3.38" waitingTime="6015.00" speed="3.80" departed="29" arrived="17" entered="125" left="131" laneChangedFrom="0" laneChangedTo="0"/>
        <edge id="35to34" sampledSeconds="8939.87" traveltime="29.67" overlapTraveltime="30.08" density="8.36" occupancy="2.47" waitingTime="85.00" speed="9.98" departed="66" arrived="48" entered="232" left="250" laneChangedFrom="0" laneChangedTo="0"/>
        <edge id="36to35" sampledSeconds="7674.53" traveltime="59.16" overlapTraveltime="59.83" density="7.22" occupancy="2.15" waitingTime="2549.00" speed="4.99" departed="69" arrived="1" entered="60" left="128" laneChangedFrom="0" laneChangedTo="0"/>
        <edge id="3to4" sampledSeconds="11461.20" traveltime="70.48" overlapTraveltime="71.32" density="10.96" occupancy="3.26" waitingTime="5050.00" speed="4.11" departed="20" arrived="32" entered="141" left="129" laneChangedFrom="0" laneChangedTo="0"/>
        <edge id="3to9" sampledSeconds="26697.11" traveltime="95.32" overlapTraveltime="95.90" density="24.96" occupancy="7.46" waitingTime="12922.00" speed="3.13" departed="56" arrived="16" entered="223" left="263" laneChangedFrom="0" laneChangedTo="0"/>
        <edge id="4to5" sampledSeconds="9282.15" traveltime="29.91" overlapTraveltime="30.31" density="8.68" occupancy="2.56" waitingTime="84.00" speed="9.90" departed="61" arrived="52" entered="246" left="255" laneChangedFrom="0" laneChangedTo="0"/>
        <edge id="5to11" sampledSeconds="122000.96" traveltime="712.26" overlapTraveltime="714.43" density="114.07" occupancy="34.20" waitingTime="108852.00" speed="0.42" departed="64" arrived="39" entered="118" left="109" laneChangedFrom="0" laneChangedTo="0"/>
        <edge id="5to6" sampledSeconds="4044.33" traveltime="25.41" overlapTraveltime="25.86" density="3.80" occupancy="1.13" waitingTime="19.00" speed="11.53" departed="21" arrived="53" entered="137" left="103" laneChangedFrom="0" laneChangedTo="0"/>
        <edge id="6to12" sampledSeconds="5515.51" traveltime="30.90" overlapTraveltime="31.32" density="5.13" occupancy="1.52" waitingTime="51.00" speed="9.63" departed="74" arrived="58" entered="103" left="119" laneChangedFrom="0" laneChangedTo="0"/>
        <edge id="7to1" sampledSeconds="5486.27" traveltime="29.39" overlapTraveltime="29.79" density="5.10" occupancy="1.51" waitingTime="16.00" speed="10.13" departed="67" arrived="60" entered="118" left="125" laneChangedFrom="0" laneChangedTo="0"/>
        <edge id="8to2" sampledSeconds="25581.69" traveltime="132.27" overlapTraveltime="133.15" density="23.92" occupancy="7.14" waitingTime="12692.00" speed="2.25" departed="74" arrived="46" entered="119" left="147" laneChangedFrom="0" laneChangedTo="0"/>
        <edge id="8to7" sampledSeconds="1725.75" traveltime="33.57" overlapTraveltime="33.93" density="1.63" occupancy="0.48" waitingTime="208.00" speed="8.75" departed="12" arrived="30" entered="39" left="21" laneChangedFrom="0" laneChangedTo="0"/>
        <edge id="9to15" sampledSeconds="91799.01" traveltime="263.49" overlapTraveltime="264.44" density="87.78" occupancy="8.76" waitingTime="76475.00" speed="1.11" departed="55" arrived="28" entered="298" left="301" laneChangedFrom="279" laneChangedTo="279"/>
        <edge id="9to8" sampledSeconds="4196.52" traveltime="43.80" overlapTraveltime="44.79" density="3.92" occupancy="1.16" waitingTime="853.00" speed="6.70" departed="26" arrived="13" entered="68" left="81" laneChangedFrom="0" laneChangedTo="0"/>
    </interval>
</meandata>
