<?xml version="1.0" encoding="UTF-8"?>

<!-- generated on Mon Mar  5 14:15:31 2018 by SUMO Version 0.32.0
<?xml version="1.0" encoding="UTF-8"?>

<configuration xmlns:xsi="http://www.w3.org/2001/XMLSchema-instance" xsi:noNamespaceSchemaLocation="http://sumo.dlr.de/xsd/sumoConfiguration.xsd">

    <input>
        <net-file value="data/cross.net.xml"/>
        <route-files value="data/cross.rou.xml"/>
        <additional-files value="data/extraInfo.xml"/>
    </input>

    <output>
        <tripinfo-output value="tripinfo.xml"/>
    </output>

    <time>
        <begin value="0"/>
        <end value="3600"/>
    </time>

    <processing>
        <max-num-vehicles value="900"/>
    </processing>

    <report>
        <verbose value="true"/>
        <no-step-log value="true"/>
    </report>

    <traci_server>
        <remote-port value="33252"/>
    </traci_server>

</configuration>
-->

<tripinfos xmlns:xsi="http://www.w3.org/2001/XMLSchema-instance" xsi:noNamespaceSchemaLocation="http://sumo.dlr.de/xsd/tripinfo_file.xsd">
    <tripinfo id="30" depart="0.00" departLane="22to21_0" departPos="3.10" departSpeed="0.00" departDelay="0.00" arrival="32.00" arrivalLane="22to21_0" arrivalPos="283.90" arrivalSpeed="13.50" duration="32.00" routeLength="280.80" waitSteps="0" timeLoss="11.30" rerouteNo="0" devices="tripinfo_30" vType="generic" speedFactor="1.00" vaporized=""/>
    <tripinfo id="165" depart="0.00" departLane="3to4_0" departPos="3.10" departSpeed="0.00" departDelay="0.00" arrival="32.00" arrivalLane="3to4_0" arrivalPos="290.50" arrivalSpeed="13.53" duration="32.00" routeLength="287.40" waitSteps="0" timeLoss="10.81" rerouteNo="0" devices="tripinfo_165" vType="generic" speedFactor="1.00" vaporized=""/>
    <tripinfo id="211" depart="0.00" departLane="14to8_0" departPos="3.10" departSpeed="0.00" departDelay="0.00" arrival="33.00" arrivalLane="14to8_0" arrivalPos="290.50" arrivalSpeed="13.85" duration="33.00" routeLength="287.40" waitSteps="0" timeLoss="11.41" rerouteNo="0" devices="tripinfo_211" vType="generic" speedFactor="1.00" vaporized=""/>
    <tripinfo id="20" depart="0.00" departLane="16to17_0" departPos="3.10" departSpeed="0.00" departDelay="0.00" arrival="33.00" arrivalLane="16to17_0" arrivalPos="297.10" arrivalSpeed="13.84" duration="33.00" routeLength="294.00" waitSteps="0" timeLoss="11.10" rerouteNo="0" devices="tripinfo_20" vType="generic" speedFactor="1.00" vaporized=""/>
    <tripinfo id="1801" depart="0.00" departLane="29to30_0" departPos="3.10" departSpeed="0.00" departDelay="0.00" arrival="33.00" arrivalLane="29to30_0" arrivalPos="293.80" arrivalSpeed="13.56" duration="33.00" routeLength="290.70" waitSteps="0" timeLoss="11.16" rerouteNo="0" devices="tripinfo_1801" vType="generic" speedFactor="1.00" vaporized=""/>
    <tripinfo id="66" depart="0.00" departLane="8to7_0" departPos="3.10" departSpeed="0.00" departDelay="0.00" arrival="34.00" arrivalLane="8to7_0" arrivalPos="293.80" arrivalSpeed="13.85" duration="34.00" routeLength="290.70" waitSteps="0" timeLoss="12.45" rerouteNo="0" devices="tripinfo_66" vType="generic" speedFactor="1.00" vaporized=""/>
    <tripinfo id="10" depart="4.00" departLane="9to15_0" departPos="3.10" departSpeed="0.00" departDelay="4.00" arrival="36.00" arrivalLane="9to15_1" arrivalPos="290.50" arrivalSpeed="13.59" duration="32.00" routeLength="287.40" waitSteps="0" timeLoss="10.90" rerouteNo="0" devices="tripinfo_10" vType="generic" speedFactor="1.00" vaporized=""/>
    <tripinfo id="3299" depart="4.00" departLane="29to30_0" departPos="3.10" departSpeed="0.00" departDelay="4.00" arrival="37.00" arrivalLane="29to30_0" arrivalPos="293.80" arrivalSpeed="13.82" duration="33.00" routeLength="290.70" waitSteps="0" timeLoss="11.15" rerouteNo="0" devices="tripinfo_3299" vType="generic" speedFactor="1.00" vaporized=""/>
    <tripinfo id="402" depart="4.00" departLane="32to31_0" departPos="3.10" departSpeed="0.00" departDelay="4.00" arrival="38.00" arrivalLane="32to31_0" arrivalPos="295.30" arrivalSpeed="13.79" duration="34.00" routeLength="292.20" waitSteps="0" timeLoss="12.39" rerouteNo="0" devices="tripinfo_402" vType="generic" speedFactor="1.00" vaporized=""/>
    <tripinfo id="328" depart="4.00" departLane="8to7_0" departPos="3.10" departSpeed="0.00" departDelay="4.00" arrival="38.00" arrivalLane="8to7_0" arrivalPos="293.80" arrivalSpeed="13.51" duration="34.00" routeLength="290.70" waitSteps="0" timeLoss="12.40" rerouteNo="0" devices="tripinfo_328" vType="generic" speedFactor="1.00" vaporized=""/>
    <tripinfo id="171" depart="9.00" departLane="12to11_0" departPos="3.10" departSpeed="0.00" departDelay="9.00" arrival="41.00" arrivalLane="12to11_0" arrivalPos="293.80" arrivalSpeed="13.74" duration="32.00" routeLength="290.70" waitSteps="0" timeLoss="10.90" rerouteNo="0" devices="tripinfo_171" vType="generic" speedFactor="1.00" vaporized=""/>
    <tripinfo id="154" depart="8.00" departLane="16to10_0" departPos="3.10" departSpeed="0.00" departDelay="8.00" arrival="41.00" arrivalLane="16to10_0" arrivalPos="290.50" arrivalSpeed="13.53" duration="33.00" routeLength="287.40" waitSteps="1" timeLoss="11.59" rerouteNo="0" devices="tripinfo_154" vType="generic" speedFactor="1.00" vaporized=""/>
    <tripinfo id="4622" depart="8.00" departLane="29to30_0" departPos="3.10" departSpeed="0.00" departDelay="8.00" arrival="41.00" arrivalLane="29to30_0" arrivalPos="293.80" arrivalSpeed="13.53" duration="33.00" routeLength="290.70" waitSteps="0" timeLoss="11.70" rerouteNo="0" devices="tripinfo_4622" vType="generic" speedFactor="1.00" vaporized=""/>
    <tripinfo id="561" depart="9.00" departLane="32to31_0" departPos="3.10" departSpeed="0.00" departDelay="9.00" arrival="41.00" arrivalLane="32to31_0" arrivalPos="295.30" arrivalSpeed="13.54" duration="32.00" routeLength="292.20" waitSteps="0" timeLoss="10.84" rerouteNo="0" devices="tripinfo_561" vType="generic" speedFactor="1.00" vaporized=""/>
    <tripinfo id="68" depart="8.00" departLane="33to32_0" departPos="3.10" departSpeed="0.00" departDelay="8.00" arrival="41.00" arrivalLane="33to32_0" arrivalPos="297.10" arrivalSpeed="13.64" duration="33.00" routeLength="294.00" waitSteps="0" timeLoss="11.36" rerouteNo="0" devices="tripinfo_68" vType="generic" speedFactor="1.00" vaporized=""/>
    <tripinfo id="429" depart="9.00" departLane="5to6_0" departPos="3.10" departSpeed="0.00" departDelay="9.00" arrival="41.00" arrivalLane="5to6_0" arrivalPos="295.30" arrivalSpeed="13.71" duration="32.00" routeLength="292.20" waitSteps="0" timeLoss="10.97" rerouteNo="0" devices="tripinfo_429" vType="generic" speedFactor="1.00" vaporized=""/>
    <tripinfo id="657" depart="9.00" departLane="8to7_0" departPos="3.10" departSpeed="0.00" departDelay="9.00" arrival="41.00" arrivalLane="8to7_0" arrivalPos="293.80" arrivalSpeed="13.67" duration="32.00" routeLength="290.70" waitSteps="0" timeLoss="10.96" rerouteNo="0" devices="tripinfo_657" vType="generic" speedFactor="1.00" vaporized=""/>
    <tripinfo id="159" depart="12.00" departLane="26to27_0" departPos="3.10" departSpeed="0.00" departDelay="12.00" arrival="45.00" arrivalLane="26to27_0" arrivalPos="297.10" arrivalSpeed="13.62" duration="33.00" routeLength="294.00" waitSteps="0" timeLoss="10.94" rerouteNo="0" devices="tripinfo_159" vType="generic" speedFactor="1.00" vaporized=""/>
    <tripinfo id="5187" depart="12.00" departLane="29to30_0" departPos="3.10" departSpeed="0.00" departDelay="12.00" arrival="46.00" arrivalLane="29to30_0" arrivalPos="293.80" arrivalSpeed="13.82" duration="34.00" routeLength="290.70" waitSteps="0" timeLoss="12.84" rerouteNo="0" devices="tripinfo_5187" vType="generic" speedFactor="1.00" vaporized=""/>
    <tripinfo id="94" depart="13.00" departLane="31to25_0" departPos="3.10" departSpeed="0.00" departDelay="13.00" arrival="46.00" arrivalLane="31to25_0" arrivalPos="298.60" arrivalSpeed="13.53" duration="33.00" routeLength="295.50" waitSteps="0" timeLoss="11.42" rerouteNo="0" devices="tripinfo_94" vType="generic" speedFactor="1.00" vaporized=""/>
    <tripinfo id="419" depart="17.00" departLane="28to29_0" departPos="3.10" departSpeed="0.00" departDelay="17.00" arrival="49.00" arrivalLane="28to29_0" arrivalPos="297.10" arrivalSpeed="13.70" duration="32.00" routeLength="294.00" waitSteps="0" timeLoss="10.64" rerouteNo="0" devices="tripinfo_419" vType="generic" speedFactor="1.00" vaporized=""/>
    <tripinfo id="5327" depart="17.00" departLane="29to30_0" departPos="3.10" departSpeed="0.00" departDelay="17.00" arrival="49.00" arrivalLane="29to30_0" arrivalPos="293.80" arrivalSpeed="13.87" duration="32.00" routeLength="290.70" waitSteps="0" timeLoss="10.69" rerouteNo="0" devices="tripinfo_5327" vType="generic" speedFactor="1.00" vaporized=""/>
    <tripinfo id="87" depart="4.00" departLane="11to10_0" departPos="3.10" departSpeed="0.00" departDelay="4.00" arrival="50.00" arrivalLane="11to10_0" arrivalPos="297.10" arrivalSpeed="2.68" duration="46.00" routeLength="294.00" waitSteps="8" timeLoss="24.77" rerouteNo="0" devices="tripinfo_87" vType="generic" speedFactor="1.00" vaporized=""/>
    <tripinfo id="99" depart="4.00" departLane="22to16_0" departPos="3.10" departSpeed="0.00" departDelay="4.00" arrival="50.00" arrivalLane="22to16_0" arrivalPos="297.10" arrivalSpeed="2.87" duration="46.00" routeLength="294.00" waitSteps="5" timeLoss="24.71" rerouteNo="0" devices="tripinfo_99" vType="generic" speedFactor="1.00" vaporized=""/>
    <tripinfo id="128" depart="4.00" departLane="34to28_0" departPos="3.10" departSpeed="0.00" departDelay="4.00" arrival="50.00" arrivalLane="34to28_0" arrivalPos="297.10" arrivalSpeed="2.38" duration="46.00" routeLength="294.00" waitSteps="8" timeLoss="24.82" rerouteNo="0" devices="tripinfo_128" vType="generic" speedFactor="1.00" vaporized=""/>
    <tripinfo id="144" depart="4.00" departLane="8to2_0" departPos="3.10" departSpeed="0.00" departDelay="4.00" arrival="50.00" arrivalLane="8to2_0" arrivalPos="297.10" arrivalSpeed="2.81" duration="46.00" routeLength="294.00" waitSteps="6" timeLoss="24.75" rerouteNo="0" devices="tripinfo_144" vType="generic" speedFactor="1.00" vaporized=""/>
    <tripinfo id="2760" depart="17.00" departLane="8to7_0" departPos="3.10" departSpeed="0.00" departDelay="17.00" arrival="50.00" arrivalLane="8to7_0" arrivalPos="293.80" arrivalSpeed="13.61" duration="33.00" routeLength="290.70" waitSteps="0" timeLoss="11.98" rerouteNo="0" devices="tripinfo_2760" vType="generic" speedFactor="1.00" vaporized=""/>
    <tripinfo id="807" depart="20.00" departLane="21to27_0" departPos="3.10" departSpeed="0.00" departDelay="20.00" arrival="52.00" arrivalLane="21to27_0" arrivalPos="283.90" arrivalSpeed="13.78" duration="32.00" routeLength="280.80" waitSteps="0" timeLoss="11.31" rerouteNo="0" devices="tripinfo_807" vType="generic" speedFactor="1.00" vaporized=""/>
    <tripinfo id="547" depart="8.00" departLane="23to29_0" departPos="3.10" departSpeed="0.00" departDelay="8.00" arrival="53.00" arrivalLane="23to29_0" arrivalPos="283.90" arrivalSpeed="3.93" duration="45.00" routeLength="280.80" waitSteps="5" timeLoss="24.55" rerouteNo="0" devices="tripinfo_547" vType="generic" speedFactor="1.00" vaporized=""/>
    <tripinfo id="3039" depart="21.00" departLane="8to7_0" departPos="3.10" departSpeed="0.00" departDelay="21.00" arrival="54.00" arrivalLane="8to7_0" arrivalPos="293.80" arrivalSpeed="13.60" duration="33.00" routeLength="290.70" waitSteps="0" timeLoss="11.35" rerouteNo="0" devices="tripinfo_3039" vType="generic" speedFactor="1.00" vaporized=""/>
    <tripinfo id="737" depart="13.00" departLane="23to29_0" departPos="3.10" departSpeed="0.00" departDelay="13.00" arrival="55.00" arrivalLane="23to29_0" arrivalPos="283.90" arrivalSpeed="4.74" duration="42.00" routeLength="280.80" waitSteps="2" timeLoss="21.59" rerouteNo="0" devices="tripinfo_737" vType="generic" speedFactor="1.00" vaporized=""/>
    <tripinfo id="466" depart="13.00" departLane="24to30_0" departPos="3.10" departSpeed="0.00" departDelay="13.00" arrival="57.00" arrivalLane="24to30_0" arrivalPos="290.50" arrivalSpeed="3.75" duration="44.00" routeLength="287.40" waitSteps="1" timeLoss="23.16" rerouteNo="0" devices="tripinfo_466" vType="generic" speedFactor="1.00" vaporized=""/>
    <tripinfo id="3118" depart="25.00" departLane="8to7_0" departPos="3.10" departSpeed="0.00" departDelay="25.00" arrival="57.00" arrivalLane="8to7_0" arrivalPos="293.80" arrivalSpeed="13.58" duration="32.00" routeLength="290.70" waitSteps="0" timeLoss="10.87" rerouteNo="0" devices="tripinfo_3118" vType="generic" speedFactor="1.00" vaporized=""/>
    <tripinfo id="1368" depart="25.00" departLane="32to31_0" departPos="3.10" departSpeed="0.00" departDelay="25.00" arrival="58.00" arrivalLane="32to31_0" arrivalPos="295.30" arrivalSpeed="13.85" duration="33.00" routeLength="292.20" waitSteps="0" timeLoss="11.77" rerouteNo="0" devices="tripinfo_1368" vType="generic" speedFactor="1.00" vaporized=""/>
    <tripinfo id="533" depart="21.00" departLane="11to17_0" departPos="3.10" departSpeed="0.00" departDelay="21.00" arrival="61.00" arrivalLane="11to17_0" arrivalPos="290.50" arrivalSpeed="5.17" duration="40.00" routeLength="287.40" waitSteps="0" timeLoss="19.28" rerouteNo="0" devices="tripinfo_533" vType="generic" speedFactor="1.00" vaporized=""/>
    <tripinfo id="526" depart="29.00" departLane="28to29_0" departPos="3.10" departSpeed="0.00" departDelay="29.00" arrival="62.00" arrivalLane="28to29_1" arrivalPos="297.10" arrivalSpeed="13.60" duration="33.00" routeLength="294.00" waitSteps="0" timeLoss="11.25" rerouteNo="0" devices="tripinfo_526" vType="generic" speedFactor="1.00" vaporized=""/>
    <tripinfo id="133" depart="0.00" departLane="28to29_0" departPos="3.10" departSpeed="0.00" departDelay="0.00" arrival="64.00" arrivalLane="29to35_0" arrivalPos="297.10" arrivalSpeed="5.62" duration="64.00" routeLength="596.10" waitSteps="0" timeLoss="21.08" rerouteNo="0" devices="tripinfo_133" vType="generic" speedFactor="1.00" vaporized=""/>
    <tripinfo id="470" depart="0.00" departLane="13to7_0" departPos="3.10" departSpeed="0.00" departDelay="0.00" arrival="64.00" arrivalLane="7to1_0" arrivalPos="298.60" arrivalSpeed="13.61" duration="64.00" routeLength="592.20" waitSteps="0" timeLoss="20.70" rerouteNo="0" devices="tripinfo_470" vType="generic" speedFactor="1.00" vaporized=""/>
    <tripinfo id="1066" depart="25.00" departLane="27to33_0" departPos="3.10" departSpeed="0.00" departDelay="25.00" arrival="65.00" arrivalLane="27to33_0" arrivalPos="297.10" arrivalSpeed="5.58" duration="40.00" routeLength="294.00" waitSteps="0" timeLoss="18.46" rerouteNo="0" devices="tripinfo_1066" vType="generic" speedFactor="1.00" vaporized=""/>
    <tripinfo id="476" depart="4.00" departLane="13to7_0" departPos="3.10" departSpeed="0.00" departDelay="4.00" arrival="65.00" arrivalLane="7to1_0" arrivalPos="298.60" arrivalSpeed="13.52" duration="61.00" routeLength="592.20" waitSteps="0" timeLoss="18.24" rerouteNo="0" devices="tripinfo_476" vType="generic" speedFactor="1.00" vaporized=""/>
    <tripinfo id="4097" depart="33.00" departLane="8to7_0" departPos="3.10" departSpeed="0.00" departDelay="33.00" arrival="66.00" arrivalLane="8to7_0" arrivalPos="293.80" arrivalSpeed="13.76" duration="33.00" routeLength="290.70" waitSteps="0" timeLoss="11.74" rerouteNo="0" devices="tripinfo_4097" vType="generic" speedFactor="1.00" vaporized=""/>
    <tripinfo id="2196" depart="34.00" departLane="32to31_0" departPos="3.10" departSpeed="0.00" departDelay="34.00" arrival="67.00" arrivalLane="32to31_0" arrivalPos="295.30" arrivalSpeed="13.62" duration="33.00" routeLength="292.20" waitSteps="0" timeLoss="11.71" rerouteNo="0" devices="tripinfo_2196" vType="generic" speedFactor="1.00" vaporized=""/>
    <tripinfo id="665" depart="8.00" departLane="13to7_0" departPos="3.10" departSpeed="0.00" departDelay="8.00" arrival="67.00" arrivalLane="7to1_0" arrivalPos="298.60" arrivalSpeed="13.75" duration="59.00" routeLength="592.20" waitSteps="0" timeLoss="15.82" rerouteNo="0" devices="tripinfo_665" vType="generic" speedFactor="1.00" vaporized=""/>
    <tripinfo id="1923" depart="13.00" departLane="8to7_0" departPos="3.10" departSpeed="0.00" departDelay="13.00" arrival="68.00" arrivalLane="7to1_0" arrivalPos="298.60" arrivalSpeed="13.71" duration="55.00" routeLength="594.30" waitSteps="0" timeLoss="12.12" rerouteNo="0" devices="tripinfo_1923" vType="generic" speedFactor="1.00" vaporized=""/>
    <tripinfo id="80" depart="4.00" departLane="4to5_0" departPos="3.10" departSpeed="0.00" departDelay="4.00" arrival="69.00" arrivalLane="5to11_0" arrivalPos="297.10" arrivalSpeed="11.62" duration="65.00" routeLength="596.10" waitSteps="0" timeLoss="21.84" rerouteNo="0" devices="tripinfo_80" vType="generic" speedFactor="1.00" vaporized=""/>
    <tripinfo id="974" depart="37.00" departLane="15to21_0" departPos="3.10" departSpeed="0.00" departDelay="37.00" arrival="70.00" arrivalLane="15to21_0" arrivalPos="297.10" arrivalSpeed="13.68" duration="33.00" routeLength="294.00" waitSteps="0" timeLoss="11.11" rerouteNo="0" devices="tripinfo_974" vType="generic" speedFactor="1.00" vaporized=""/>
    <tripinfo id="509" depart="24.00" departLane="11to10_0" departPos="3.10" departSpeed="0.00" departDelay="24.00" arrival="71.00" arrivalLane="11to10_0" arrivalPos="297.10" arrivalSpeed="3.76" duration="47.00" routeLength="294.00" waitSteps="0" timeLoss="25.60" rerouteNo="0" devices="tripinfo_509" vType="generic" speedFactor="1.00" vaporized=""/>
    <tripinfo id="2906" depart="38.00" departLane="20to19_0" departPos="3.10" departSpeed="0.00" departDelay="38.00" arrival="71.00" arrivalLane="20to19_0" arrivalPos="293.80" arrivalSpeed="13.53" duration="33.00" routeLength="290.70" waitSteps="1" timeLoss="11.33" rerouteNo="0" devices="tripinfo_2906" vType="generic" speedFactor="1.00" vaporized=""/>
    <tripinfo id="376" depart="8.00" departLane="3to4_0" departPos="3.10" departSpeed="0.00" departDelay="8.00" arrival="72.00" arrivalLane="4to5_0" arrivalPos="297.10" arrivalSpeed="11.82" duration="64.00" routeLength="590.70" waitSteps="0" timeLoss="21.21" rerouteNo="0" devices="tripinfo_376" vType="generic" speedFactor="1.00" vaporized=""/>
    <tripinfo id="51" depart="12.00" departLane="6to12_0" departPos="3.10" departSpeed="0.00" departDelay="12.00" arrival="73.00" arrivalLane="12to18_0" arrivalPos="290.50" arrivalSpeed="13.68" duration="61.00" routeLength="592.20" waitSteps="0" timeLoss="18.22" rerouteNo="0" devices="tripinfo_51" vType="generic" speedFactor="1.00" vaporized=""/>
    <tripinfo id="4133" depart="41.00" departLane="8to7_0" departPos="3.10" departSpeed="0.00" departDelay="41.00" arrival="73.00" arrivalLane="8to7_0" arrivalPos="293.80" arrivalSpeed="13.82" duration="32.00" routeLength="290.70" waitSteps="0" timeLoss="10.93" rerouteNo="0" devices="tripinfo_4133" vType="generic" speedFactor="1.00" vaporized=""/>
    <tripinfo id="383" depart="42.00" departLane="2to3_0" departPos="3.10" departSpeed="0.00" departDelay="42.00" arrival="74.00" arrivalLane="2to3_0" arrivalPos="297.10" arrivalSpeed="13.78" duration="32.00" routeLength="294.00" waitSteps="0" timeLoss="10.62" rerouteNo="0" devices="tripinfo_383" vType="generic" speedFactor="1.00" vaporized=""/>
    <tripinfo id="227" depart="16.00" departLane="2to3_0" departPos="3.10" departSpeed="0.00" departDelay="16.00" arrival="75.00" arrivalLane="3to9_0" arrivalPos="297.10" arrivalSpeed="13.59" duration="59.00" routeLength="596.10" waitSteps="0" timeLoss="15.36" rerouteNo="0" devices="tripinfo_227" vType="generic" speedFactor="1.00" vaporized=""/>
    <tripinfo id="72" depart="0.00" departLane="5to11_0" departPos="3.10" departSpeed="0.00" departDelay="0.00" arrival="79.00" arrivalLane="11to17_0" arrivalPos="290.50" arrivalSpeed="8.64" duration="79.00" routeLength="590.70" waitSteps="9" timeLoss="36.26" rerouteNo="0" devices="tripinfo_72" vType="generic" speedFactor="1.00" vaporized=""/>
    <tripinfo id="1544" depart="45.00" departLane="27to33_0" departPos="3.10" departSpeed="0.00" departDelay="45.00" arrival="79.00" arrivalLane="27to33_0" arrivalPos="297.10" arrivalSpeed="12.07" duration="34.00" routeLength="294.00" waitSteps="0" timeLoss="12.00" rerouteNo="0" devices="tripinfo_1544" vType="generic" speedFactor="1.00" vaporized=""/>
    <tripinfo id="808" depart="17.00" departLane="32to31_0" departPos="3.10" departSpeed="0.00" departDelay="17.00" arrival="79.00" arrivalLane="31to25_0" arrivalPos="298.60" arrivalSpeed="13.75" duration="62.00" routeLength="593.38" waitSteps="0" timeLoss="18.95" rerouteNo="0" devices="tripinfo_808" vType="generic" speedFactor="1.00" vaporized=""/>
    <tripinfo id="674" depart="47.00" departLane="12to18_0" departPos="3.10" departSpeed="0.00" departDelay="47.00" arrival="80.00" arrivalLane="12to18_0" arrivalPos="290.50" arrivalSpeed="13.54" duration="33.00" routeLength="287.40" waitSteps="0" timeLoss="11.44" rerouteNo="0" devices="tripinfo_674" vType="generic" speedFactor="1.00" vaporized=""/>
    <tripinfo id="4700" depart="46.00" departLane="8to7_0" departPos="3.10" departSpeed="0.00" departDelay="46.00" arrival="80.00" arrivalLane="8to7_0" arrivalPos="293.80" arrivalSpeed="13.56" duration="34.00" routeLength="290.70" waitSteps="0" timeLoss="12.53" rerouteNo="0" devices="tripinfo_4700" vType="generic" speedFactor="1.00" vaporized=""/>
    <tripinfo id="137" depart="17.00" departLane="33to32_0" departPos="3.10" departSpeed="0.00" departDelay="17.00" arrival="81.00" arrivalLane="32to31_0" arrivalPos="295.30" arrivalSpeed="9.77" duration="64.00" routeLength="595.50" waitSteps="0" timeLoss="20.89" rerouteNo="0" devices="tripinfo_137" vType="generic" speedFactor="1.00" vaporized=""/>
    <tripinfo id="197" depart="8.00" departLane="34to28_0" departPos="3.10" departSpeed="0.00" departDelay="8.00" arrival="82.00" arrivalLane="28to29_1" arrivalPos="297.10" arrivalSpeed="13.80" duration="74.00" routeLength="598.95" waitSteps="6" timeLoss="30.63" rerouteNo="0" devices="tripinfo_197" vType="generic" speedFactor="1.00" vaporized=""/>
    <tripinfo id="85" depart="4.00" departLane="24to30_0" departPos="3.10" departSpeed="0.00" departDelay="4.00" arrival="82.00" arrivalLane="30to36_0" arrivalPos="298.60" arrivalSpeed="13.59" duration="78.00" routeLength="592.20" waitSteps="8" timeLoss="34.99" rerouteNo="0" devices="tripinfo_85" vType="generic" speedFactor="1.00" vaporized=""/>
    <tripinfo id="818" depart="45.00" departLane="9to8_0" departPos="3.10" departSpeed="0.00" departDelay="45.00" arrival="82.00" arrivalLane="9to8_0" arrivalPos="297.10" arrivalSpeed="4.73" duration="37.00" routeLength="294.00" waitSteps="0" timeLoss="15.68" rerouteNo="0" devices="tripinfo_818" vType="generic" speedFactor="1.00" vaporized=""/>
    <tripinfo id="833" depart="50.00" departLane="24to30_0" departPos="3.10" departSpeed="0.00" departDelay="50.00" arrival="83.00" arrivalLane="24to30_0" arrivalPos="290.50" arrivalSpeed="8.91" duration="33.00" routeLength="287.40" waitSteps="0" timeLoss="12.26" rerouteNo="0" devices="tripinfo_833" vType="generic" speedFactor="1.00" vaporized=""/>
    <tripinfo id="1096" depart="51.00" departLane="10to4_0" departPos="3.10" departSpeed="0.00" departDelay="51.00" arrival="84.00" arrivalLane="10to4_0" arrivalPos="297.10" arrivalSpeed="13.88" duration="33.00" routeLength="294.00" waitSteps="0" timeLoss="11.11" rerouteNo="0" devices="tripinfo_1096" vType="generic" speedFactor="1.00" vaporized=""/>
    <tripinfo id="5220" depart="51.00" departLane="8to7_0" departPos="3.10" departSpeed="0.00" departDelay="51.00" arrival="84.00" arrivalLane="8to7_0" arrivalPos="293.80" arrivalSpeed="13.72" duration="33.00" routeLength="290.70" waitSteps="0" timeLoss="11.16" rerouteNo="0" devices="tripinfo_5220" vType="generic" speedFactor="1.00" vaporized=""/>
    <tripinfo id="303" depart="4.00" departLane="27to33_0" departPos="3.10" departSpeed="0.00" departDelay="4.00" arrival="85.00" arrivalLane="33to32_0" arrivalPos="297.10" arrivalSpeed="6.33" duration="81.00" routeLength="596.10" waitSteps="8" timeLoss="37.67" rerouteNo="0" devices="tripinfo_303" vType="generic" speedFactor="1.00" vaporized=""/>
    <tripinfo id="220" depart="4.00" departLane="9to8_0" departPos="3.10" departSpeed="0.00" departDelay="4.00" arrival="85.00" arrivalLane="8to7_0" arrivalPos="293.80" arrivalSpeed="13.51" duration="81.00" routeLength="594.00" waitSteps="8" timeLoss="38.07" rerouteNo="0" devices="tripinfo_220" vType="generic" speedFactor="1.00" vaporized=""/>
    <tripinfo id="1434" depart="53.00" departLane="28to29_0" departPos="3.10" departSpeed="0.00" departDelay="53.00" arrival="86.00" arrivalLane="28to29_1" arrivalPos="297.10" arrivalSpeed="12.86" duration="33.00" routeLength="294.00" waitSteps="0" timeLoss="11.27" rerouteNo="0" devices="tripinfo_1434" vType="generic" speedFactor="1.00" vaporized=""/>
    <tripinfo id="4077" depart="54.00" departLane="23to29_0" departPos="3.10" departSpeed="0.00" departDelay="54.00" arrival="86.00" arrivalLane="23to29_0" arrivalPos="283.90" arrivalSpeed="13.60" duration="32.00" routeLength="280.80" waitSteps="0" timeLoss="10.89" rerouteNo="0" devices="tripinfo_4077" vType="generic" speedFactor="1.00" vaporized=""/>
    <tripinfo id="406" depart="26.00" departLane="3to9_0" departPos="3.10" departSpeed="0.00" departDelay="26.00" arrival="87.00" arrivalLane="9to15_1" arrivalPos="290.50" arrivalSpeed="13.55" duration="61.00" routeLength="591.23" waitSteps="0" timeLoss="17.95" rerouteNo="0" devices="tripinfo_406" vType="generic" speedFactor="1.00" vaporized=""/>
    <tripinfo id="246" depart="13.00" departLane="21to20_0" departPos="3.10" departSpeed="0.00" departDelay="13.00" arrival="87.00" arrivalLane="20to14_0" arrivalPos="297.10" arrivalSpeed="13.57" duration="74.00" routeLength="596.10" waitSteps="0" timeLoss="30.49" rerouteNo="0" devices="tripinfo_246" vType="generic" speedFactor="1.00" vaporized=""/>
    <tripinfo id="2732" depart="55.00" departLane="32to31_0" departPos="3.10" departSpeed="0.00" departDelay="55.00" arrival="87.00" arrivalLane="32to31_0" arrivalPos="295.30" arrivalSpeed="13.82" duration="32.00" routeLength="292.20" waitSteps="0" timeLoss="10.80" rerouteNo="0" devices="tripinfo_2732" vType="generic" speedFactor="1.00" vaporized=""/>
    <tripinfo id="4125" depart="58.00" departLane="23to29_0" departPos="3.10" departSpeed="0.00" departDelay="58.00" arrival="90.00" arrivalLane="23to29_0" arrivalPos="283.90" arrivalSpeed="13.69" duration="32.00" routeLength="280.80" waitSteps="0" timeLoss="10.99" rerouteNo="0" devices="tripinfo_4125" vType="generic" speedFactor="1.00" vaporized=""/>
    <tripinfo id="1109" depart="59.00" departLane="24to30_0" departPos="3.10" departSpeed="0.00" departDelay="59.00" arrival="91.00" arrivalLane="24to30_0" arrivalPos="290.50" arrivalSpeed="13.62" duration="32.00" routeLength="287.40" waitSteps="0" timeLoss="10.41" rerouteNo="0" devices="tripinfo_1109" vType="generic" speedFactor="1.00" vaporized=""/>
    <tripinfo id="4108" depart="59.00" departLane="20to19_0" departPos="3.10" departSpeed="0.00" departDelay="59.00" arrival="92.00" arrivalLane="20to19_0" arrivalPos="293.80" arrivalSpeed="13.64" duration="33.00" routeLength="290.70" waitSteps="0" timeLoss="11.21" rerouteNo="0" devices="tripinfo_4108" vType="generic" speedFactor="1.00" vaporized=""/>
    <tripinfo id="1021" depart="13.00" departLane="20to19_0" departPos="3.10" departSpeed="0.00" departDelay="13.00" arrival="95.00" arrivalLane="19to13_0" arrivalPos="297.10" arrivalSpeed="2.55" duration="82.00" routeLength="592.80" waitSteps="5" timeLoss="39.28" rerouteNo="0" devices="tripinfo_1021" vType="generic" speedFactor="1.00" vaporized=""/>
    <tripinfo id="176" depart="17.00" departLane="24to23_0" departPos="3.10" departSpeed="0.00" departDelay="17.00" arrival="95.00" arrivalLane="24to23_0" arrivalPos="293.80" arrivalSpeed="2.44" duration="78.00" routeLength="290.70" waitSteps="39" timeLoss="57.02" rerouteNo="0" devices="tripinfo_176" vType="generic" speedFactor="1.00" vaporized=""/>
    <tripinfo id="2791" depart="63.00" departLane="32to31_0" departPos="3.10" departSpeed="0.00" departDelay="63.00" arrival="95.00" arrivalLane="32to31_0" arrivalPos="295.30" arrivalSpeed="13.62" duration="32.00" routeLength="292.20" waitSteps="0" timeLoss="10.63" rerouteNo="0" devices="tripinfo_2791" vType="generic" speedFactor="1.00" vaporized=""/>
    <tripinfo id="465" depart="17.00" departLane="12to11_0" departPos="3.10" departSpeed="0.00" departDelay="17.00" arrival="96.00" arrivalLane="12to11_0" arrivalPos="293.80" arrivalSpeed="2.81" duration="79.00" routeLength="290.70" waitSteps="39" timeLoss="57.97" rerouteNo="0" devices="tripinfo_465" vType="generic" speedFactor="1.00" vaporized=""/>
    <tripinfo id="2504" depart="16.00" departLane="13to7_0" departPos="3.10" departSpeed="0.00" departDelay="16.00" arrival="96.00" arrivalLane="13to7_0" arrivalPos="290.50" arrivalSpeed="2.79" duration="80.00" routeLength="287.40" waitSteps="41" timeLoss="59.21" rerouteNo="0" devices="tripinfo_2504" vType="generic" speedFactor="1.00" vaporized=""/>
    <tripinfo id="167" depart="4.00" departLane="23to29_0" departPos="3.10" departSpeed="0.00" departDelay="4.00" arrival="97.00" arrivalLane="29to30_0" arrivalPos="293.80" arrivalSpeed="3.44" duration="93.00" routeLength="585.48" waitSteps="18" timeLoss="50.83" rerouteNo="0" devices="tripinfo_167" vType="generic" speedFactor="1.00" vaporized=""/>
    <tripinfo id="1078" depart="17.00" departLane="20to19_0" departPos="3.10" departSpeed="0.00" departDelay="17.00" arrival="98.00" arrivalLane="19to13_0" arrivalPos="297.10" arrivalSpeed="4.00" duration="81.00" routeLength="592.80" waitSteps="2" timeLoss="38.17" rerouteNo="0" devices="tripinfo_1078" vType="generic" speedFactor="1.00" vaporized=""/>