<?xml version="1.0" encoding="UTF-8"?>

<!-- generated on Thu Mar 22 00:48:36 2018 by SUMO Version 0.32.0
<?xml version="1.0" encoding="UTF-8"?>

<configuration xmlns:xsi="http://www.w3.org/2001/XMLSchema-instance" xsi:noNamespaceSchemaLocation="http://sumo.dlr.de/xsd/sumoConfiguration.xsd">

    <input>
        <net-file value="data/cross.net.xml"/>
        <route-files value="data/cross.rou.xml"/>
        <additional-files value="data/extraInfo.xml"/>
    </input>

    <output>
        <tripinfo-output value="tripinfo.xml"/>
    </output>

    <time>
        <begin value="0"/>
        <end value="3600"/>
    </time>

    <processing>
        <max-num-vehicles value="900"/>
    </processing>

    <report>
        <verbose value="true"/>
        <no-step-log value="true"/>
    </report>

    <traci_server>
        <remote-port value="52742"/>
    </traci_server>

</configuration>
-->

<tripinfos xmlns:xsi="http://www.w3.org/2001/XMLSchema-instance" xsi:noNamespaceSchemaLocation="http://sumo.dlr.de/xsd/tripinfo_file.xsd">
    <tripinfo id="30" depart="0.00" departLane="22to21_0" departPos="3.10" departSpeed="0.00" departDelay="0.00" arrival="32.00" arrivalLane="22to21_0" arrivalPos="283.90" arrivalSpeed="13.62" duration="32.00" routeLength="280.80" waitSteps="0" timeLoss="11.31" rerouteNo="0" devices="tripinfo_30" vType="generic" speedFactor="1.00" vaporized=""/>
    <tripinfo id="165" depart="0.00" departLane="3to4_0" departPos="3.10" departSpeed="0.00" departDelay="0.00" arrival="32.00" arrivalLane="3to4_0" arrivalPos="290.50" arrivalSpeed="13.62" duration="32.00" routeLength="287.40" waitSteps="0" timeLoss="10.83" rerouteNo="0" devices="tripinfo_165" vType="generic" speedFactor="1.00" vaporized=""/>
    <tripinfo id="20" depart="0.00" departLane="16to17_0" departPos="3.10" departSpeed="0.00" departDelay="0.00" arrival="33.00" arrivalLane="16to17_0" arrivalPos="297.10" arrivalSpeed="13.79" duration="33.00" routeLength="294.00" waitSteps="0" timeLoss="11.09" rerouteNo="0" devices="tripinfo_20" vType="generic" speedFactor="1.00" vaporized=""/>
    <tripinfo id="99" depart="0.00" departLane="22to16_0" departPos="3.10" departSpeed="0.00" departDelay="0.00" arrival="33.00" arrivalLane="22to16_0" arrivalPos="297.10" arrivalSpeed="13.67" duration="33.00" routeLength="294.00" waitSteps="0" timeLoss="11.82" rerouteNo="0" devices="tripinfo_99" vType="generic" speedFactor="1.00" vaporized=""/>
    <tripinfo id="1801" depart="0.00" departLane="29to30_0" departPos="3.10" departSpeed="0.00" departDelay="0.00" arrival="33.00" arrivalLane="29to30_0" arrivalPos="293.80" arrivalSpeed="13.64" duration="33.00" routeLength="290.70" waitSteps="0" timeLoss="11.17" rerouteNo="0" devices="tripinfo_1801" vType="generic" speedFactor="1.00" vaporized=""/>
    <tripinfo id="128" depart="0.00" departLane="34to28_0" departPos="3.10" departSpeed="0.00" departDelay="0.00" arrival="33.00" arrivalLane="34to28_0" arrivalPos="297.10" arrivalSpeed="13.79" duration="33.00" routeLength="294.00" waitSteps="0" timeLoss="11.71" rerouteNo="0" devices="tripinfo_128" vType="generic" speedFactor="1.00" vaporized=""/>
    <tripinfo id="66" depart="0.00" departLane="8to7_0" departPos="3.10" departSpeed="0.00" departDelay="0.00" arrival="34.00" arrivalLane="8to7_0" arrivalPos="293.80" arrivalSpeed="13.57" duration="34.00" routeLength="290.70" waitSteps="0" timeLoss="12.43" rerouteNo="0" devices="tripinfo_66" vType="generic" speedFactor="1.00" vaporized=""/>
    <tripinfo id="10" depart="4.00" departLane="9to15_0" departPos="3.10" departSpeed="0.00" departDelay="4.00" arrival="36.00" arrivalLane="9to15_1" arrivalPos="290.50" arrivalSpeed="13.77" duration="32.00" routeLength="287.40" waitSteps="0" timeLoss="10.95" rerouteNo="0" devices="tripinfo_10" vType="generic" speedFactor="1.00" vaporized=""/>
    <tripinfo id="211" depart="4.00" departLane="14to8_0" departPos="3.10" departSpeed="0.00" departDelay="4.00" arrival="37.00" arrivalLane="14to8_0" arrivalPos="290.50" arrivalSpeed="13.82" duration="33.00" routeLength="287.40" waitSteps="0" timeLoss="11.62" rerouteNo="0" devices="tripinfo_211" vType="generic" speedFactor="1.00" vaporized=""/>
    <tripinfo id="3299" depart="4.00" departLane="29to30_0" departPos="3.10" departSpeed="0.00" departDelay="4.00" arrival="37.00" arrivalLane="29to30_0" arrivalPos="293.80" arrivalSpeed="13.61" duration="33.00" routeLength="290.70" waitSteps="0" timeLoss="11.26" rerouteNo="0" devices="tripinfo_3299" vType="generic" speedFactor="1.00" vaporized=""/>
    <tripinfo id="328" depart="4.00" departLane="8to7_0" departPos="3.10" departSpeed="0.00" departDelay="4.00" arrival="37.00" arrivalLane="8to7_0" arrivalPos="293.80" arrivalSpeed="13.53" duration="33.00" routeLength="290.70" waitSteps="0" timeLoss="12.05" rerouteNo="0" devices="tripinfo_328" vType="generic" speedFactor="1.00" vaporized=""/>
    <tripinfo id="402" depart="4.00" departLane="32to31_0" departPos="3.10" departSpeed="0.00" departDelay="4.00" arrival="38.00" arrivalLane="32to31_0" arrivalPos="295.30" arrivalSpeed="13.78" duration="34.00" routeLength="292.20" waitSteps="0" timeLoss="12.21" rerouteNo="0" devices="tripinfo_402" vType="generic" speedFactor="1.00" vaporized=""/>
    <tripinfo id="159" depart="8.00" departLane="26to27_0" departPos="3.10" departSpeed="0.00" departDelay="8.00" arrival="40.00" arrivalLane="26to27_0" arrivalPos="297.10" arrivalSpeed="13.70" duration="32.00" routeLength="294.00" waitSteps="0" timeLoss="10.47" rerouteNo="0" devices="tripinfo_159" vType="generic" speedFactor="1.00" vaporized=""/>
    <tripinfo id="419" depart="8.00" departLane="28to29_0" departPos="3.10" departSpeed="0.00" departDelay="8.00" arrival="41.00" arrivalLane="28to29_0" arrivalPos="297.10" arrivalSpeed="13.50" duration="33.00" routeLength="294.00" waitSteps="0" timeLoss="11.17" rerouteNo="0" devices="tripinfo_419" vType="generic" speedFactor="1.00" vaporized=""/>
    <tripinfo id="154" depart="8.00" departLane="16to10_0" departPos="3.10" departSpeed="0.00" departDelay="8.00" arrival="41.00" arrivalLane="16to10_0" arrivalPos="290.50" arrivalSpeed="13.84" duration="33.00" routeLength="287.40" waitSteps="1" timeLoss="12.27" rerouteNo="0" devices="tripinfo_154" vType="generic" speedFactor="1.00" vaporized=""/>
    <tripinfo id="4622" depart="8.00" departLane="29to30_0" departPos="3.10" departSpeed="0.00" departDelay="8.00" arrival="41.00" arrivalLane="29to30_0" arrivalPos="293.80" arrivalSpeed="13.58" duration="33.00" routeLength="290.70" waitSteps="0" timeLoss="11.99" rerouteNo="0" devices="tripinfo_4622" vType="generic" speedFactor="1.00" vaporized=""/>
    <tripinfo id="68" depart="8.00" departLane="33to32_0" departPos="3.10" departSpeed="0.00" departDelay="8.00" arrival="41.00" arrivalLane="33to32_0" arrivalPos="297.10" arrivalSpeed="13.89" duration="33.00" routeLength="294.00" waitSteps="0" timeLoss="11.35" rerouteNo="0" devices="tripinfo_68" vType="generic" speedFactor="1.00" vaporized=""/>
    <tripinfo id="429" depart="9.00" departLane="5to6_0" departPos="3.10" departSpeed="0.00" departDelay="9.00" arrival="41.00" arrivalLane="5to6_0" arrivalPos="295.30" arrivalSpeed="13.80" duration="32.00" routeLength="292.20" waitSteps="0" timeLoss="10.78" rerouteNo="0" devices="tripinfo_429" vType="generic" speedFactor="1.00" vaporized=""/>
    <tripinfo id="657" depart="9.00" departLane="8to7_0" departPos="3.10" departSpeed="0.00" departDelay="9.00" arrival="41.00" arrivalLane="8to7_0" arrivalPos="293.80" arrivalSpeed="13.58" duration="32.00" routeLength="290.70" waitSteps="0" timeLoss="11.05" rerouteNo="0" devices="tripinfo_657" vType="generic" speedFactor="1.00" vaporized=""/>
    <tripinfo id="561" depart="9.00" departLane="32to31_0" departPos="3.10" departSpeed="0.00" departDelay="9.00" arrival="42.00" arrivalLane="32to31_0" arrivalPos="295.30" arrivalSpeed="13.59" duration="33.00" routeLength="292.20" waitSteps="0" timeLoss="11.01" rerouteNo="0" devices="tripinfo_561" vType="generic" speedFactor="1.00" vaporized=""/>
    <tripinfo id="5187" depart="12.00" departLane="29to30_0" departPos="3.10" departSpeed="0.00" departDelay="12.00" arrival="46.00" arrivalLane="29to30_0" arrivalPos="293.80" arrivalSpeed="13.51" duration="34.00" routeLength="290.70" waitSteps="0" timeLoss="12.31" rerouteNo="0" devices="tripinfo_5187" vType="generic" speedFactor="1.00" vaporized=""/>
    <tripinfo id="94" depart="13.00" departLane="31to25_0" departPos="3.10" departSpeed="0.00" departDelay="13.00" arrival="46.00" arrivalLane="31to25_0" arrivalPos="298.60" arrivalSpeed="13.85" duration="33.00" routeLength="295.50" waitSteps="0" timeLoss="10.93" rerouteNo="0" devices="tripinfo_94" vType="generic" speedFactor="1.00" vaporized=""/>
    <tripinfo id="87" depart="4.00" departLane="11to10_0" departPos="3.10" departSpeed="0.00" departDelay="4.00" arrival="50.00" arrivalLane="11to10_0" arrivalPos="297.10" arrivalSpeed="2.67" duration="46.00" routeLength="294.00" waitSteps="8" timeLoss="24.71" rerouteNo="0" devices="tripinfo_87" vType="generic" speedFactor="1.00" vaporized=""/>
    <tripinfo id="5327" depart="17.00" departLane="29to30_0" departPos="3.10" departSpeed="0.00" departDelay="17.00" arrival="50.00" arrivalLane="29to30_0" arrivalPos="293.80" arrivalSpeed="13.63" duration="33.00" routeLength="290.70" waitSteps="0" timeLoss="11.24" rerouteNo="0" devices="tripinfo_5327" vType="generic" speedFactor="1.00" vaporized=""/>
    <tripinfo id="2760" depart="17.00" departLane="8to7_0" departPos="3.10" departSpeed="0.00" departDelay="17.00" arrival="50.00" arrivalLane="8to7_0" arrivalPos="293.80" arrivalSpeed="13.79" duration="33.00" routeLength="290.70" waitSteps="0" timeLoss="11.54" rerouteNo="0" devices="tripinfo_2760" vType="generic" speedFactor="1.00" vaporized=""/>
    <tripinfo id="144" depart="4.00" departLane="8to2_0" departPos="3.10" departSpeed="0.00" departDelay="4.00" arrival="52.00" arrivalLane="8to2_0" arrivalPos="297.10" arrivalSpeed="2.71" duration="48.00" routeLength="294.00" waitSteps="8" timeLoss="26.75" rerouteNo="0" devices="tripinfo_144" vType="generic" speedFactor="1.00" vaporized=""/>
    <tripinfo id="807" depart="21.00" departLane="21to27_0" departPos="3.10" departSpeed="0.00" departDelay="21.00" arrival="53.00" arrivalLane="21to27_0" arrivalPos="283.90" arrivalSpeed="13.59" duration="32.00" routeLength="280.80" waitSteps="0" timeLoss="11.47" rerouteNo="0" devices="tripinfo_807" vType="generic" speedFactor="1.00" vaporized=""/>
    <tripinfo id="526" depart="21.00" departLane="28to29_0" departPos="3.10" departSpeed="0.00" departDelay="21.00" arrival="54.00" arrivalLane="28to29_1" arrivalPos="297.10" arrivalSpeed="12.56" duration="33.00" routeLength="294.00" waitSteps="0" timeLoss="11.18" rerouteNo="0" devices="tripinfo_526" vType="generic" speedFactor="1.00" vaporized=""/>
    <tripinfo id="547" depart="8.00" departLane="23to29_0" departPos="3.10" departSpeed="0.00" departDelay="8.00" arrival="54.00" arrivalLane="23to29_0" arrivalPos="283.90" arrivalSpeed="3.93" duration="46.00" routeLength="280.80" waitSteps="5" timeLoss="25.53" rerouteNo="0" devices="tripinfo_547" vType="generic" speedFactor="1.00" vaporized=""/>
    <tripinfo id="466" depart="8.00" departLane="24to30_0" departPos="3.10" departSpeed="0.00" departDelay="8.00" arrival="54.00" arrivalLane="24to30_0" arrivalPos="290.50" arrivalSpeed="2.63" duration="46.00" routeLength="287.40" waitSteps="4" timeLoss="25.22" rerouteNo="0" devices="tripinfo_466" vType="generic" speedFactor="1.00" vaporized=""/>
    <tripinfo id="3039" depart="21.00" departLane="8to7_0" departPos="3.10" departSpeed="0.00" departDelay="21.00" arrival="54.00" arrivalLane="8to7_0" arrivalPos="293.80" arrivalSpeed="13.84" duration="33.00" routeLength="290.70" waitSteps="0" timeLoss="11.62" rerouteNo="0" devices="tripinfo_3039" vType="generic" speedFactor="1.00" vaporized=""/>
    <tripinfo id="674" depart="12.00" departLane="12to18_0" departPos="3.10" departSpeed="0.00" departDelay="12.00" arrival="55.00" arrivalLane="12to18_0" arrivalPos="290.50" arrivalSpeed="4.16" duration="43.00" routeLength="287.40" waitSteps="2" timeLoss="22.21" rerouteNo="0" devices="tripinfo_674" vType="generic" speedFactor="1.00" vaporized=""/>
    <tripinfo id="737" depart="13.00" departLane="23to29_0" departPos="3.10" departSpeed="0.00" departDelay="13.00" arrival="57.00" arrivalLane="23to29_0" arrivalPos="283.90" arrivalSpeed="4.11" duration="44.00" routeLength="280.80" waitSteps="1" timeLoss="23.53" rerouteNo="0" devices="tripinfo_737" vType="generic" speedFactor="1.00" vaporized=""/>
    <tripinfo id="3118" depart="25.00" departLane="8to7_0" departPos="3.10" departSpeed="0.00" departDelay="25.00" arrival="57.00" arrivalLane="8to7_0" arrivalPos="293.80" arrivalSpeed="13.61" duration="32.00" routeLength="290.70" waitSteps="0" timeLoss="11.05" rerouteNo="0" devices="tripinfo_3118" vType="generic" speedFactor="1.00" vaporized=""/>
    <tripinfo id="1368" depart="25.00" departLane="32to31_0" departPos="3.10" departSpeed="0.00" departDelay="25.00" arrival="59.00" arrivalLane="32to31_0" arrivalPos="295.30" arrivalSpeed="13.54" duration="34.00" routeLength="292.20" waitSteps="0" timeLoss="12.01" rerouteNo="0" devices="tripinfo_1368" vType="generic" speedFactor="1.00" vaporized=""/>
    <tripinfo id="2906" depart="17.00" departLane="20to19_0" departPos="3.10" departSpeed="0.00" departDelay="17.00" arrival="60.00" arrivalLane="20to19_0" arrivalPos="293.80" arrivalSpeed="5.19" duration="43.00" routeLength="290.70" waitSteps="0" timeLoss="21.78" rerouteNo="0" devices="tripinfo_2906" vType="generic" speedFactor="1.00" vaporized=""/>
    <tripinfo id="533" depart="21.00" departLane="11to17_0" departPos="3.10" departSpeed="0.00" departDelay="21.00" arrival="61.00" arrivalLane="11to17_0" arrivalPos="290.50" arrivalSpeed="5.32" duration="40.00" routeLength="287.40" waitSteps="0" timeLoss="19.27" rerouteNo="0" devices="tripinfo_533" vType="generic" speedFactor="1.00" vaporized=""/>
    <tripinfo id="1434" depart="29.00" departLane="28to29_0" departPos="3.10" departSpeed="0.00" departDelay="29.00" arrival="62.00" arrivalLane="28to29_1" arrivalPos="297.10" arrivalSpeed="13.84" duration="33.00" routeLength="294.00" waitSteps="0" timeLoss="11.53" rerouteNo="0" devices="tripinfo_1434" vType="generic" speedFactor="1.00" vaporized=""/>
    <tripinfo id="509" depart="24.00" departLane="11to10_0" departPos="3.10" departSpeed="0.00" departDelay="24.00" arrival="63.00" arrivalLane="11to10_0" arrivalPos="297.10" arrivalSpeed="4.78" duration="39.00" routeLength="294.00" waitSteps="0" timeLoss="17.73" rerouteNo="0" devices="tripinfo_509" vType="generic" speedFactor="1.00" vaporized=""/>
    <tripinfo id="2196" depart="34.00" departLane="32to31_0" departPos="3.10" departSpeed="0.00" departDelay="34.00" arrival="66.00" arrivalLane="32to31_0" arrivalPos="295.30" arrivalSpeed="13.66" duration="32.00" routeLength="292.20" waitSteps="0" timeLoss="10.41" rerouteNo="0" devices="tripinfo_2196" vType="generic" speedFactor="1.00" vaporized=""/>
    <tripinfo id="80" depart="4.00" departLane="4to5_0" departPos="3.10" departSpeed="0.00" departDelay="4.00" arrival="66.00" arrivalLane="5to11_0" arrivalPos="297.10" arrivalSpeed="13.52" duration="62.00" routeLength="596.10" waitSteps="0" timeLoss="18.31" rerouteNo="0" devices="tripinfo_80" vType="generic" speedFactor="1.00" vaporized=""/>
    <tripinfo id="4097" depart="34.00" departLane="8to7_0" departPos="3.10" departSpeed="0.00" departDelay="34.00" arrival="66.00" arrivalLane="8to7_0" arrivalPos="293.80" arrivalSpeed="13.50" duration="32.00" routeLength="290.70" waitSteps="0" timeLoss="10.23" rerouteNo="0" devices="tripinfo_4097" vType="generic" speedFactor="1.00" vaporized=""/>
    <tripinfo id="4108" depart="29.00" departLane="20to19_0" departPos="3.10" departSpeed="0.00" departDelay="29.00" arrival="69.00" arrivalLane="20to19_0" arrivalPos="293.80" arrivalSpeed="3.34" duration="40.00" routeLength="290.70" waitSteps="0" timeLoss="18.86" rerouteNo="0" devices="tripinfo_4108" vType="generic" speedFactor="1.00" vaporized=""/>
    <tripinfo id="133" depart="0.00" departLane="28to29_0" departPos="3.10" departSpeed="0.00" departDelay="0.00" arrival="69.00" arrivalLane="29to35_0" arrivalPos="297.10" arrivalSpeed="6.64" duration="69.00" routeLength="596.10" waitSteps="0" timeLoss="25.66" rerouteNo="0" devices="tripinfo_133" vType="generic" speedFactor="1.00" vaporized=""/>
    <tripinfo id="4599" depart="36.00" departLane="20to19_0" departPos="3.10" departSpeed="0.00" departDelay="36.00" arrival="71.00" arrivalLane="20to19_0" arrivalPos="293.80" arrivalSpeed="6.84" duration="35.00" routeLength="290.70" waitSteps="0" timeLoss="13.61" rerouteNo="0" devices="tripinfo_4599" vType="generic" speedFactor="1.00" vaporized=""/>
    <tripinfo id="4133" depart="38.00" departLane="8to7_0" departPos="3.10" departSpeed="0.00" departDelay="38.00" arrival="71.00" arrivalLane="8to7_0" arrivalPos="293.80" arrivalSpeed="13.63" duration="33.00" routeLength="290.70" waitSteps="0" timeLoss="11.34" rerouteNo="0" devices="tripinfo_4133" vType="generic" speedFactor="1.00" vaporized=""/>
    <tripinfo id="5012" depart="42.00" departLane="20to19_0" departPos="3.10" departSpeed="0.00" departDelay="42.00" arrival="74.00" arrivalLane="20to19_0" arrivalPos="293.80" arrivalSpeed="13.74" duration="32.00" routeLength="290.70" waitSteps="0" timeLoss="10.89" rerouteNo="0" devices="tripinfo_5012" vType="generic" speedFactor="1.00" vaporized=""/>
    <tripinfo id="833" depart="41.00" departLane="24to30_0" departPos="3.10" departSpeed="0.00" departDelay="41.00" arrival="74.00" arrivalLane="24to30_0" arrivalPos="290.50" arrivalSpeed="13.80" duration="33.00" routeLength="287.40" waitSteps="0" timeLoss="12.00" rerouteNo="0" devices="tripinfo_833" vType="generic" speedFactor="1.00" vaporized=""/>
    <tripinfo id="383" depart="41.00" departLane="2to3_0" departPos="3.10" departSpeed="0.00" departDelay="41.00" arrival="74.00" arrivalLane="2to3_0" arrivalPos="297.10" arrivalSpeed="13.80" duration="33.00" routeLength="294.00" waitSteps="0" timeLoss="11.53" rerouteNo="0" devices="tripinfo_383" vType="generic" speedFactor="1.00" vaporized=""/>
    <tripinfo id="1096" depart="42.00" departLane="10to4_0" departPos="3.10" departSpeed="0.00" departDelay="42.00" arrival="75.00" arrivalLane="10to4_0" arrivalPos="297.10" arrivalSpeed="13.51" duration="33.00" routeLength="294.00" waitSteps="0" timeLoss="11.34" rerouteNo="0" devices="tripinfo_1096" vType="generic" speedFactor="1.00" vaporized=""/>
    <tripinfo id="227" depart="16.00" departLane="2to3_0" departPos="3.10" departSpeed="0.00" departDelay="16.00" arrival="75.00" arrivalLane="3to9_0" arrivalPos="297.10" arrivalSpeed="13.74" duration="59.00" routeLength="596.10" waitSteps="0" timeLoss="15.83" rerouteNo="0" devices="tripinfo_227" vType="generic" speedFactor="1.00" vaporized=""/>
    <tripinfo id="1923" depart="13.00" departLane="8to7_0" departPos="3.10" departSpeed="0.00" departDelay="13.00" arrival="75.00" arrivalLane="7to1_0" arrivalPos="298.60" arrivalSpeed="5.67" duration="62.00" routeLength="594.30" waitSteps="0" timeLoss="19.06" rerouteNo="0" devices="tripinfo_1923" vType="generic" speedFactor="1.00" vaporized=""/>
    <tripinfo id="51" depart="12.00" departLane="6to12_0" departPos="3.10" departSpeed="0.00" departDelay="12.00" arrival="76.00" arrivalLane="12to18_0" arrivalPos="290.50" arrivalSpeed="12.82" duration="64.00" routeLength="592.20" waitSteps="0" timeLoss="21.03" rerouteNo="0" devices="tripinfo_51" vType="generic" speedFactor="1.00" vaporized=""/>
    <tripinfo id="72" depart="0.00" departLane="5to11_0" departPos="3.10" departSpeed="0.00" departDelay="0.00" arrival="77.00" arrivalLane="11to17_0" arrivalPos="290.50" arrivalSpeed="11.74" duration="77.00" routeLength="590.70" waitSteps="9" timeLoss="34.45" rerouteNo="0" devices="tripinfo_72" vType="generic" speedFactor="1.00" vaporized=""/>
    <tripinfo id="197" depart="4.00" departLane="34to28_0" departPos="3.10" departSpeed="0.00" departDelay="4.00" arrival="78.00" arrivalLane="28to29_1" arrivalPos="297.10" arrivalSpeed="13.52" duration="74.00" routeLength="598.95" waitSteps="6" timeLoss="30.69" rerouteNo="0" devices="tripinfo_197" vType="generic" speedFactor="1.00" vaporized=""/>
    <tripinfo id="1109" depart="45.00" departLane="24to30_0" departPos="3.10" departSpeed="0.00" departDelay="45.00" arrival="79.00" arrivalLane="24to30_0" arrivalPos="290.50" arrivalSpeed="13.69" duration="34.00" routeLength="287.40" waitSteps="1" timeLoss="12.52" rerouteNo="0" devices="tripinfo_1109" vType="generic" speedFactor="1.00" vaporized=""/>
    <tripinfo id="808" depart="17.00" departLane="32to31_0" departPos="3.10" departSpeed="0.00" departDelay="17.00" arrival="79.00" arrivalLane="31to25_0" arrivalPos="298.60" arrivalSpeed="11.53" duration="62.00" routeLength="593.38" waitSteps="0" timeLoss="18.82" rerouteNo="0" devices="tripinfo_808" vType="generic" speedFactor="1.00" vaporized=""/>
    <tripinfo id="1021" depart="0.00" departLane="20to19_0" departPos="3.10" departSpeed="0.00" departDelay="0.00" arrival="80.00" arrivalLane="19to13_0" arrivalPos="297.10" arrivalSpeed="12.02" duration="80.00" routeLength="592.80" waitSteps="9" timeLoss="37.01" rerouteNo="0" devices="tripinfo_1021" vType="generic" speedFactor="1.00" vaporized=""/>
    <tripinfo id="2732" depart="46.00" departLane="32to31_0" departPos="3.10" departSpeed="0.00" departDelay="46.00" arrival="80.00" arrivalLane="32to31_0" arrivalPos="295.30" arrivalSpeed="13.76" duration="34.00" routeLength="292.20" waitSteps="0" timeLoss="12.87" rerouteNo="0" devices="tripinfo_2732" vType="generic" speedFactor="1.00" vaporized=""/>
    <tripinfo id="4700" depart="46.00" departLane="8to7_0" departPos="3.10" departSpeed="0.00" departDelay="46.00" arrival="80.00" arrivalLane="8to7_0" arrivalPos="293.80" arrivalSpeed="13.66" duration="34.00" routeLength="290.70" waitSteps="0" timeLoss="12.11" rerouteNo="0" devices="tripinfo_4700" vType="generic" speedFactor="1.00" vaporized=""/>
    <tripinfo id="580" depart="8.00" departLane="12to18_0" departPos="3.10" departSpeed="0.00" departDelay="8.00" arrival="81.00" arrivalLane="18to24_0" arrivalPos="297.10" arrivalSpeed="11.15" duration="73.00" routeLength="590.70" waitSteps="5" timeLoss="30.38" rerouteNo="0" devices="tripinfo_580" vType="generic" speedFactor="1.00" vaporized=""/>
    <tripinfo id="85" depart="0.00" departLane="24to30_0" departPos="3.10" departSpeed="0.00" departDelay="0.00" arrival="81.00" arrivalLane="30to36_0" arrivalPos="298.60" arrivalSpeed="9.39" duration="81.00" routeLength="592.20" waitSteps="8" timeLoss="38.23" rerouteNo="0" devices="tripinfo_85" vType="generic" speedFactor="1.00" vaporized=""/>
    <tripinfo id="1078" depart="5.00" departLane="20to19_0" departPos="3.10" departSpeed="0.00" departDelay="5.00" arrival="82.00" arrivalLane="19to13_0" arrivalPos="297.10" arrivalSpeed="13.59" duration="77.00" routeLength="592.80" waitSteps="7" timeLoss="33.59" rerouteNo="0" devices="tripinfo_1078" vType="generic" speedFactor="1.00" vaporized=""/>
    <tripinfo id="2195" depart="50.00" departLane="24to30_0" departPos="3.10" departSpeed="0.00" departDelay="50.00" arrival="82.00" arrivalLane="24to30_0" arrivalPos="290.50" arrivalSpeed="13.60" duration="32.00" routeLength="287.40" waitSteps="0" timeLoss="11.18" rerouteNo="0" devices="tripinfo_2195" vType="generic" speedFactor="1.00" vaporized=""/>
    <tripinfo id="137" depart="17.00" departLane="33to32_0" departPos="3.10" departSpeed="0.00" departDelay="17.00" arrival="82.00" arrivalLane="32to31_0" arrivalPos="295.30" arrivalSpeed="13.55" duration="65.00" routeLength="595.50" waitSteps="0" timeLoss="21.54" rerouteNo="0" devices="tripinfo_137" vType="generic" speedFactor="1.00" vaporized=""/>
    <tripinfo id="5220" depart="50.00" departLane="8to7_0" departPos="3.10" departSpeed="0.00" departDelay="50.00" arrival="82.00" arrivalLane="8to7_0" arrivalPos="293.80" arrivalSpeed="13.56" duration="32.00" routeLength="290.70" waitSteps="0" timeLoss="10.89" rerouteNo="0" devices="tripinfo_5220" vType="generic" speedFactor="1.00" vaporized=""/>
    <tripinfo id="2177" depart="45.00" departLane="28to29_0" departPos="3.10" departSpeed="0.00" departDelay="45.00" arrival="83.00" arrivalLane="28to29_1" arrivalPos="297.10" arrivalSpeed="3.92" duration="38.00" routeLength="294.00" waitSteps="0" timeLoss="16.61" rerouteNo="0" devices="tripinfo_2177" vType="generic" speedFactor="1.00" vaporized=""/>
    <tripinfo id="1583" depart="9.00" departLane="20to19_0" departPos="3.10" departSpeed="0.00" departDelay="9.00" arrival="84.00" arrivalLane="19to13_0" arrivalPos="297.10" arrivalSpeed="13.64" duration="75.00" routeLength="592.80" waitSteps="3" timeLoss="31.47" rerouteNo="0" devices="tripinfo_1583" vType="generic" speedFactor="1.00" vaporized=""/>
    <tripinfo id="220" depart="9.00" departLane="9to8_0" departPos="3.10" departSpeed="0.00" departDelay="9.00" arrival="84.00" arrivalLane="8to7_0" arrivalPos="293.80" arrivalSpeed="13.51" duration="75.00" routeLength="594.00" waitSteps="3" timeLoss="31.58" rerouteNo="0" devices="tripinfo_220" vType="generic" speedFactor="1.00" vaporized=""/>
    <tripinfo id="2792" depart="13.00" departLane="20to19_0" departPos="3.10" departSpeed="0.00" departDelay="13.00" arrival="85.00" arrivalLane="19to13_0" arrivalPos="297.10" arrivalSpeed="13.77" duration="72.00" routeLength="592.80" waitSteps="1" timeLoss="29.31" rerouteNo="0" devices="tripinfo_2792" vType="generic" speedFactor="1.00" vaporized=""/>
    <tripinfo id="406" depart="21.00" departLane="3to9_0" departPos="3.10" departSpeed="0.00" departDelay="21.00" arrival="87.00" arrivalLane="9to15_1" arrivalPos="290.50" arrivalSpeed="13.58" duration="66.00" routeLength="591.23" waitSteps="0" timeLoss="22.62" rerouteNo="0" devices="tripinfo_406" vType="generic" speedFactor="1.00" vaporized=""/>
    <tripinfo id="4077" depart="55.00" departLane="23to29_0" departPos="3.10" departSpeed="0.00" departDelay="55.00" arrival="87.00" arrivalLane="23to29_0" arrivalPos="283.90" arrivalSpeed="13.67" duration="32.00" routeLength="280.80" waitSteps="0" timeLoss="11.72" rerouteNo="0" devices="tripinfo_4077" vType="generic" speedFactor="1.00" vaporized=""/>
    <tripinfo id="818" depart="54.00" departLane="9to8_0" departPos="3.10" departSpeed="0.00" departDelay="54.00" arrival="87.00" arrivalLane="9to8_0" arrivalPos="297.10" arrivalSpeed="13.76" duration="33.00" routeLength="294.00" waitSteps="0" timeLoss="10.90" rerouteNo="0" devices="tripinfo_818" vType="generic" speedFactor="1.00" vaporized=""/>
    <tripinfo id="2791" depart="55.00" departLane="32to31_0" departPos="3.10" departSpeed="0.00" departDelay="55.00" arrival="88.00" arrivalLane="32to31_0" arrivalPos="295.30" arrivalSpeed="13.60" duration="33.00" routeLength="292.20" waitSteps="0" timeLoss="11.60" rerouteNo="0" devices="tripinfo_2791" vType="generic" speedFactor="1.00" vaporized=""/>
    <tripinfo id="3835" depart="57.00" departLane="28to29_0" departPos="3.10" departSpeed="0.00" departDelay="57.00" arrival="90.00" arrivalLane="28to29_1" arrivalPos="297.10" arrivalSpeed="13.77" duration="33.00" routeLength="294.00" waitSteps="0" timeLoss="11.32" rerouteNo="0" devices="tripinfo_3835" vType="generic" speedFactor="1.00" vaporized=""/>
    <tripinfo id="537" depart="38.00" departLane="3to9_0" departPos="3.10" departSpeed="0.00" departDelay="38.00" arrival="91.00" arrivalLane="9to15_2" arrivalPos="290.50" arrivalSpeed="13.83" duration="53.00" routeLength="591.23" waitSteps="0" timeLoss="10.36" rerouteNo="0" devices="tripinfo_537" vType="generic" speedFactor="1.00" vaporized=""/>
    <tripinfo id="4125" depart="59.00" departLane="23to29_0" departPos="3.10" departSpeed="0.00" departDelay="59.00" arrival="92.00" arrivalLane="23to29_0" arrivalPos="283.90" arrivalSpeed="13.56" duration="33.00" routeLength="280.80" waitSteps="0" timeLoss="12.29" rerouteNo="0" devices="tripinfo_4125" vType="generic" speedFactor="1.00" vaporized=""/>
    <tripinfo id="3465" depart="21.00" departLane="20to19_0" departPos="3.10" departSpeed="0.00" departDelay="21.00" arrival="95.00" arrivalLane="19to13_0" arrivalPos="297.10" arrivalSpeed="11.27" duration="74.00" routeLength="592.80" waitSteps="0" timeLoss="31.31" rerouteNo="0" devices="tripinfo_3465" vType="generic" speedFactor="1.00" vaporized=""/>
    <tripinfo id="428" depart="41.00" departLane="21to20_0" departPos="3.10" departSpeed="0.00" departDelay="41.00" arrival="96.00" arrivalLane="20to19_0" arrivalPos="293.80" arrivalSpeed="13.54" duration="55.00" routeLength="594.00" waitSteps="0" timeLoss="12.13" rerouteNo="0" devices="tripinfo_428" vType="generic" speedFactor="1.00" vaporized=""/>
    <tripinfo id="3797" depart="25.00" departLane="20to19_0" departPos="3.10" departSpeed="0.00" departDelay="25.00" arrival="97.00" arrivalLane="19to13_0" arrivalPos="297.10" arrivalSpeed="12.30" duration="72.00" routeLength="592.80" waitSteps="0" timeLoss="28.84" rerouteNo="0" devices="tripinfo_3797" vType="generic" speedFactor="1.00" vaporized=""/>
    <tripinfo id="861" depart="29.00" departLane="27to28_0" departPos="3.10" departSpeed="0.00" departDelay="29.00" arrival="98.00" arrivalLane="27to28_1" arrivalPos="283.90" arrivalSpeed="3.66" duration="69.00" routeLength="280.80" waitSteps="24" timeLoss="48.59" rerouteNo="0" devices="tripinfo_861" vType="generic" speedFactor="1.00" vaporized=""/>
    <tripinfo id="171" depart="21.00" departLane="12to11_0" departPos="3.10" departSpeed="0.00" departDelay="21.00" arrival="100.00" arrivalLane="12to11_0" arrivalPos="293.80" arrivalSpeed="4.08" duration="79.00" routeLength="290.70" waitSteps="38" timeLoss="57.81" rerouteNo="0" devices="tripinfo_171" vType="generic" speedFactor="1.00" vaporized=""/>